<?xml version="1.0" encoding="UTF-8"?>
<UPF version="2.0.1">
  <PP_INFO><![CDATA[
Generated using "atomic" code by A. Dal Corso  v.6.3MaX
Author: TM
Generation date:  4Apr2023
Pseudopotential type: NC
Element:  O
Functional: PBE
    Suggested minimum cutoff for wavefunctions:   0. Ry
    Suggested minimum cutoff for charge density:   0. Ry
    The Pseudo was generated with a Scalar-Relativistic Calculation
    L component and cutoff radius for Local Potential:  0   1.1000
    Pseudopotential contains additional information for GIPAW reconstruction.
    Valence configuration:
    nl pn  l   occ       Rcut    Rcut US       E pseu
    2P  2  1  4.00      1.100      1.100    -0.663759
    2S  1  0  2.00      0.954      0.954    -1.761167
    Generation configuration:
    2P  2  1  4.00      1.100      1.100    -0.663748
    2S  1  0  2.00      1.100      1.100    -1.761144
    Pseudization used: troullier-martins
]]>
    <PP_INPUTFILE><![CDATA[
 &input
   title='O',
   zed=8,
   rel=1,
   config='[He] 2s2 2p4 3d-2',
   iswitch=3,
   dft='PBE'
 /
 &inputp
   pseudotype=2,
   file_pseudopw='O.pbe-nc.UPF',
   author='TM',
   lloc=0,
   tm=.true.
 /
2
2P  2  1  4.00  0.00  1.10  1.10  0.0
2S  1  0  2.00  0.00  1.10  1.10  0.0
]]></PP_INPUTFILE>
  </PP_INFO>
  <!--
 END OF HUMAN READABLE SECTION 
-->
  <PP_HEADER generated="Generated using &quot;atomic&quot; code by A. Dal Corso  v.6.3MaX" author="TM" date=" 4Apr2023" comment="" element=" O" pseudo_type="NC" relativistic="scalar" is_ultrasoft="false" is_paw="false" is_coulomb="false" has_so="false" has_wfc="false" has_gipaw="true" paw_as_gipaw="false" core_correction="false" functional="PBE" z_valence="6.000000000000e0" total_psenergy="-3.155708117484e1" wfc_cutoff="0.000000000000e0" rho_cutoff="0.000000000000e0" l_max="1" l_max_rho="2" l_local="0" mesh_size="1095" number_of_wfc="2" number_of_proj="1"/>
  <PP_MESH dx="1.250000000000e-2" mesh="1095" xmin="-7.000000000000e0" rmax="1.000000000000e2" zmesh="8.000000000000e0">
    <PP_R>
      1.139852456943145e-4 1.154190035836278e-4 1.168707959270728e-4 1.183408495701567e-4
      1.198293942117525e-4 1.213366624399886e-4 1.228628897685923e-4 1.244083146736889e-4
      1.259731786310638e-4 1.275577261538943e-4 1.291622048309546e-4 1.307868653653023e-4
      1.324319616134513e-4 1.340977506250371e-4 1.357844926829822e-4 1.374924513441648e-4
      1.392218934806004e-4 1.409730893211416e-4 1.427463124937009e-4 1.445418400680072e-4
      1.463599525988968e-4 1.482009341701516e-4 1.500650724388876e-4 1.519526586805018e-4
      1.538639878341851e-4 1.557993585490062e-4 1.577590732305768e-4 1.597434380883031e-4
      1.617527631832310e-4 1.637873624764950e-4 1.658475538783739e-4 1.679336592979658e-4
      1.700460046934867e-4 1.721849201232021e-4 1.743507397969999e-4 1.765438021286102e-4
      1.787644497884843e-4 1.810130297573370e-4 1.832898933803629e-4 1.855953964221359e-4
      1.879298991221965e-4 1.902937662513415e-4 1.926873671686188e-4 1.951110758790415e-4
      1.975652710920271e-4 2.000503362805706e-4 2.025666597411633e-4 2.051146346544658e-4
      2.076946591467417e-4 2.103071363520677e-4 2.129524744753217e-4 2.156310868559678e-4
      2.183433920326400e-4 2.210898138085401e-4 2.238707813176588e-4 2.266867290918269e-4
      2.295380971286134e-4 2.324253309600751e-4 2.353488817223722e-4 2.383092062262596e-4
      2.413067670284637e-4 2.443420325039583e-4 2.474154769191496e-4 2.505275805059799e-4
      2.536788295369667e-4 2.568697164011823e-4 2.601007396811912e-4 2.633724042309542e-4
      2.666852212547135e-4 2.700397083868693e-4 2.734363897728607e-4 2.768757961510646e-4
      2.803584649357254e-4 2.838849403009259e-4 2.874557732656170e-4 2.910715217797142e-4
      2.947327508112791e-4 2.984400324347967e-4 3.021939459205629e-4 3.059950778251979e-4
      3.098440220832948e-4 3.137413801002249e-4 3.176877608461073e-4 3.216837809509625e-4
      3.257300648010623e-4 3.298272446364902e-4 3.339759606499313e-4 3.381768610867034e-4
      3.424306023460461e-4 3.467378490836861e-4 3.510992743156891e-4 3.555155595236209e-4
      3.599873947610304e-4 3.645154787612710e-4 3.691005190466808e-4 3.737432320391325e-4
      3.784443431719769e-4 3.832045870033929e-4 3.880247073311636e-4 3.929054573088975e-4
      3.978475995637083e-4 4.028519063153783e-4 4.079191594970186e-4 4.130501508772477e-4
      4.182456821839090e-4 4.235065652293390e-4 4.288336220372168e-4 4.342276849710067e-4
      4.396895968640161e-4 4.452202111510912e-4 4.508203920019663e-4 4.564910144562929e-4
      4.622329645603665e-4 4.680471395055726e-4 4.739344477685759e-4 4.798958092532704e-4
      4.859321554345163e-4 4.920444295036853e-4 4.982335865160364e-4 5.045005935399448e-4
      5.108464298080083e-4 5.172720868700546e-4 5.237785687480724e-4 5.303668920930925e-4
      5.370380863440425e-4 5.437931938885962e-4 5.506332702260508e-4 5.575593841322503e-4
      5.645726178265833e-4 5.716740671410841e-4 5.788648416916558e-4 5.861460650514514e-4
      5.935188749264347e-4 6.009844233331483e-4 6.085438767787203e-4 6.161984164431314e-4
      6.239492383637771e-4 6.317975536223518e-4 6.397445885340814e-4 6.477915848393407e-4
      6.559397998976730e-4 6.641905068842595e-4 6.725449949888525e-4 6.810045696172157e-4
      6.895705525950964e-4 6.982442823747625e-4 7.070271142441385e-4 7.159204205385732e-4
      7.249255908552676e-4 7.340440322704065e-4 7.432771695590118e-4 7.526264454175699e-4
      7.620933206894548e-4 7.716792745931876e-4 7.813858049535702e-4 7.912144284357183e-4
      8.011666807820479e-4 8.112441170522358e-4 8.214483118662017e-4 8.317808596501468e-4
      8.422433748856834e-4 8.528374923621033e-4 8.635648674318166e-4 8.744271762690014e-4
      8.854261161315156e-4 8.965634056260875e-4 9.078407849768615e-4 9.192600162973045e-4
      9.308228838655424e-4 9.425311944031595e-4 9.543867773574952e-4 9.663914851875088e-4
      9.785471936532218e-4 9.908558021088119e-4 1.003319233799395e-3 1.015939436161526e-3
      1.028718381127504e-3 1.041658065433476e-3 1.054760510931441e-3 1.068027764905168e-3
      1.081461900390079e-3 1.095065016497178e-3 1.108839238741032e-3 1.122786719371889e-3
      1.136909637711978e-3 1.151210200496017e-3 1.165690642216041e-3 1.180353225470526e-3
      1.195200241317938e-3 1.210234009634712e-3 1.225456879477729e-3 1.240871229451376e-3
      1.256479468079198e-3 1.272284034180234e-3 1.288287397250094e-3 1.304492057846813e-3
      1.320900547981582e-3 1.337515431514366e-3 1.354339304554519e-3 1.371374795866436e-3
      1.388624567280288e-3 1.406091314107958e-3 1.423777765564172e-3 1.441686685192953e-3
      1.459820871299431e-3 1.478183157387077e-3 1.496776412600453e-3 1.515603542173513e-3
      1.534667487883554e-3 1.553971228510887e-3 1.573517780304250e-3 1.593310197452134e-3
      1.613351572559984e-3 1.633645037133435e-3 1.654193762067618e-3 1.675000958142603e-3
      1.696069876525117e-3 1.717403809276518e-3 1.739006089867202e-3 1.760880093697467e-3
      1.783029238624907e-3 1.805456985498485e-3 1.828166838699278e-3 1.851162346688050e-3
      1.874447102559715e-3 1.898024744604743e-3 1.921898956877679e-3 1.946073469772761e-3
      1.970552060606811e-3 1.995338554209453e-3 2.020436823520734e-3 2.045850790196303e-3
      2.071584425220157e-3 2.097641749525120e-3 2.124026834621136e-3 2.150743803231423e-3
      2.177796829936689e-3 2.205190141827396e-3 2.232928019164254e-3 2.261014796047039e-3
      2.289454861091772e-3 2.318252658116485e-3 2.347412686835551e-3 2.376939503562782e-3
      2.406837721923366e-3 2.437112013574749e-3 2.467767108936598e-3 2.498807797929929e-3
      2.530238930725549e-3 2.562065418501907e-3 2.594292234212467e-3 2.626924413362754e-3
      2.659967054797147e-3 2.693425321495597e-3 2.727304441380347e-3 2.761609708132806e-3
      2.796346482020700e-3 2.831520190735621e-3 2.867136330241116e-3 2.903200465631447e-3
      2.939718232001138e-3 2.976695335325485e-3 3.014137553352109e-3 3.052050736503754e-3
      3.090440808792425e-3 3.129313768745019e-3 3.168675690340618e-3 3.208532723959554e-3
      3.248891097344418e-3 3.289757116573164e-3 3.331137167044436e-3 3.373037714475311e-3
      3.415465305911571e-3 3.458426570750697e-3 3.501928221777728e-3 3.545977056214138e-3
      3.590579956779929e-3 3.635743892769060e-3 3.681475921138411e-3 3.727783187610464e-3
      3.774672927789813e-3 3.822152468293761e-3 3.870229227897112e-3 3.918910718691361e-3
      3.968204547258494e-3 4.018118415859508e-3 4.068660123637929e-3 4.119837567838420e-3
      4.171658745040760e-3 4.224131752409320e-3 4.277264788958254e-3 4.331066156832629e-3
      4.385544262605629e-3 4.440707618592120e-3 4.496564844178708e-3 4.553124667170529e-3
      4.610395925155002e-3 4.668387566882703e-3 4.727108653665636e-3 4.786568360793082e-3
      4.846775978965251e-3 4.907740915744977e-3 4.969472697027665e-3 5.031980968529731e-3
      5.095275497295778e-3 5.159366173224694e-3 5.224263010614989e-3 5.289976149729539e-3
      5.356515858380023e-3 5.423892533531296e-3 5.492116702925927e-3 5.561199026729190e-3
      5.631150299194728e-3 5.701981450351176e-3 5.773703547710015e-3 5.846327797994872e-3
      5.919865548892616e-3 5.994328290826434e-3 6.069727658751246e-3 6.146075433971698e-3
      6.223383545982993e-3 6.301664074334923e-3 6.380929250519301e-3 6.461191459881177e-3
      6.542463243554048e-3 6.624757300419475e-3 6.708086489091267e-3 6.792463829924687e-3
      6.877902507050909e-3 6.964415870437048e-3 7.052017437972169e-3 7.140720897579412e-3
      7.230540109354811e-3 7.321489107732946e-3 7.413582103679840e-3 7.506833486913493e-3
      7.601257828152247e-3 7.696869881391530e-3 7.793684586209181e-3 7.891717070099796e-3
      7.990982650838446e-3 8.091496838874070e-3 8.193275339753045e-3 8.296334056573206e-3
      8.400689092468719e-3 8.506356753126274e-3 8.613353549332823e-3 8.721696199555458e-3
      8.831401632553703e-3 8.942486990024651e-3 9.054969629281430e-3 9.168867125965265e-3
      9.284197276791739e-3 9.400978102331553e-3 9.519227849826290e-3 9.638964996039590e-3
      9.760208250144146e-3 9.882976556645085e-3 1.000728909834007e-2 1.013316529931665e-2
      1.026062482798735e-2 1.038968760016282e-2 1.052037378216380e-2 1.065270379397211e-2
      1.078669831242131e-2 1.092237827442755e-2 1.105976488026091e-2 1.119887959685809e-2
      1.133974416117657e-2 1.148238058359111e-2 1.162681115133294e-2 1.177305843197209e-2
      1.192114527694371e-2 1.207109482511861e-2 1.222293050641876e-2 1.237667604547829e-2
      1.253235546535047e-2 1.268999309126139e-2 1.284961355441081e-2 1.301124179582083e-2
      1.317490307023304e-2 1.334062295005453e-2 1.350842732935366e-2 1.367834242790612e-2
      1.385039479529174e-2 1.402461131504297e-2 1.420101920884547e-2 1.437964604079156e-2
      1.456051972168713e-2 1.474366851341282e-2 1.492912103333995e-2 1.511690625880209e-2
      1.530705353162274e-2 1.549959256270016e-2 1.569455343664966e-2 1.589196661650445e-2
      1.609186294847553e-2 1.629427366677146e-2 1.649923039847878e-2 1.670676516850381e-2
      1.691691040457659e-2 1.712969894231781e-2 1.734516403036941e-2 1.756333933558977e-2
      1.778425894831421e-2 1.800795738768166e-2 1.823446960702843e-2 1.846383099934961e-2
      1.869607740282939e-2 1.893124510644084e-2 1.916937085561606e-2 1.941049185798788e-2
      1.965464578920346e-2 1.990187079881130e-2 2.015220551622211e-2 2.040568905674480e-2
      2.066236102769832e-2 2.092226153460032e-2 2.118543118743377e-2 2.145191110699236e-2
      2.172174293130564e-2 2.199496882214519e-2 2.227163147161231e-2 2.255177410880886e-2
      2.283544050659185e-2 2.312267498841303e-2 2.341352243524463e-2 2.370802829259191e-2
      2.400623857759428e-2 2.430819988621546e-2 2.461395940052426e-2 2.492356489606689e-2
      2.523706474933193e-2 2.555450794530926e-2 2.587594408514410e-2 2.620142339388722e-2
      2.653099672834289e-2 2.686471558501508e-2 2.720263210815412e-2 2.754479909790425e-2
      2.789127001855372e-2 2.824209900688886e-2 2.859734088065281e-2 2.895705114711111e-2
      2.932128601172473e-2 2.969010238693226e-2 3.006355790104277e-2 3.044171090724010e-2
      3.082462049270083e-2 3.121234648782671e-2 3.160494947559331e-2 3.200249080101626e-2
      3.240503258073645e-2 3.281263771272592e-2 3.322536988611585e-2 3.364329359114798e-2
      3.406647412925158e-2 3.449497762324665e-2 3.492887102767593e-2 3.536822213926663e-2
      3.581309960752376e-2 3.626357294545692e-2 3.671971254044162e-2 3.718158966521759e-2
      3.764927648902528e-2 3.812284608888241e-2 3.860237246100249e-2 3.908793053235673e-2
      3.957959617238167e-2 4.007744620483386e-2 4.058155841979372e-2 4.109201158582052e-2
      4.160888546225996e-2 4.213226081170681e-2 4.266221941262424e-2 4.319884407212181e-2
      4.374221863889443e-2 4.429242801632361e-2 4.484955817574398e-2 4.541369616987644e-2
      4.598493014643029e-2 4.656334936187663e-2 4.714904419539463e-2 4.774210616299364e-2
      4.834262793181269e-2 4.895070333459987e-2 4.956642738437412e-2 5.018989628927085e-2
      5.082120746757491e-2 5.146045956294234e-2 5.210775245981355e-2 5.276318729902069e-2
      5.342686649359085e-2 5.409889374474844e-2 5.477937405811870e-2 5.546841376013498e-2
      5.616612051465271e-2 5.687260333977171e-2 5.758797262487077e-2 5.831234014785609e-2
      5.904581909262684e-2 5.978852406676052e-2 6.054057111942033e-2 6.130207775948829e-2
      6.207316297392623e-2 6.285394724636761e-2 6.364455257594366e-2 6.444510249634554e-2
      6.525572209512704e-2 6.607653803324971e-2 6.690767856487378e-2 6.774927355739840e-2
      6.860145451175333e-2 6.946435458294646e-2 7.033810860086952e-2 7.122285309136538e-2
      7.211872629756084e-2 7.302586820146701e-2 7.394442054585193e-2 7.487452685638822e-2
      7.581633246407917e-2 7.676998452796724e-2 7.773563205812755e-2 7.871342593895130e-2
      7.970351895272172e-2 8.070606580348651e-2 8.172122314123092e-2 8.274914958635428e-2
      8.379000575445495e-2 8.484395428142687e-2 8.591115984887153e-2 8.699178920983027e-2
      8.808601121483921e-2 8.919399683831287e-2 9.031591920525909e-2 9.145195361833023e-2
      9.260227758521475e-2 9.376707084637276e-2 9.494651540312111e-2 9.614079554607137e-2
      9.735009788392562e-2 9.857461137263460e-2 9.981452734492215e-2 1.010700395401816e-1
      1.023413441347478e-1 1.036286397725501e-1 1.049321275961509e-1 1.062520112781748e-1
      1.075884970531323e-1 1.089417937496448e-1 1.103121128230744e-1 1.116996683885645e-1
      1.131046772544950e-1 1.145273589563598e-1 1.159679357910692e-1 1.174266328516845e-1
      1.189036780625893e-1 1.203993022151028e-1 1.219137390035417e-1 1.234472250617353e-1
      1.250000000000000e-1 1.265723064425793e-1 1.281643900655537e-1 1.297764996352282e-1
      1.314088870470031e-1 1.330618073647324e-1 1.347355188605790e-1 1.364302830553690e-1
      1.381463647594560e-1 1.398840321140977e-1 1.416435566333533e-1 1.434252132465090e-1
      1.452292803410354e-1 1.470560398060864e-1 1.489057770765449e-1 1.507787811776226e-1
      1.526753447700213e-1 1.545957641956607e-1 1.565403395239831e-1 1.585093745988400e-1
      1.605031770859677e-1 1.625220585210614e-1 1.645663343584527e-1 1.666363240204004e-1
      1.687323509470005e-1 1.708547426467245e-1 1.730038307475940e-1 1.751799510489967e-1
      1.773834435741573e-1 1.796146526232657e-1 1.818739268272751e-1 1.841616192023770e-1
      1.864780872051588e-1 1.888236927884592e-1 1.911988024579225e-1 1.936037873292666e-1
      1.960390231862712e-1 1.985048905394930e-1 2.010017746857230e-1 2.035300657681889e-1
      2.060901588375160e-1 2.086824539134554e-1 2.113073560473865e-1 2.139652753856081e-1
      2.166566272334245e-1 2.193818321200373e-1 2.221413158642549e-1 2.249355096410262e-1
      2.277648500488137e-1 2.306297791778126e-1 2.335307446790278e-1 2.364681998342212e-1
      2.394426036267371e-1 2.424544208132194e-1 2.455041219962311e-1 2.485921836977865e-1
      2.517190884338096e-1 2.548853247895270e-1 2.580913874958109e-1 2.613377775064821e-1
      2.646250020765843e-1 2.679535748416449e-1 2.713240158979304e-1 2.747368518837129e-1
      2.781926160615587e-1 2.816918484016511e-1 2.852350956661630e-1 2.888229114946881e-1
      2.924558564907490e-1 2.961344983093927e-1 2.998594117458873e-1 3.036311788255361e-1
      3.074503888946189e-1 3.113176387124790e-1 3.152335325447687e-1 3.191986822578659e-1
      3.232137074144808e-1 3.272792353704627e-1 3.313959013728260e-1 3.355643486590090e-1
      3.397852285573806e-1 3.440592005890134e-1 3.483869325707314e-1 3.527691007194624e-1
      3.572063897578957e-1 3.616994930214701e-1 3.662491125667131e-1 3.708559592809336e-1
      3.755207529933040e-1 3.802442225873332e-1 3.850271061147539e-1 3.898701509108494e-1
      3.947741137112211e-1 3.997397607700343e-1 4.047678679797454e-1 4.098592209923342e-1
      4.150146153420689e-1 4.202348565698038e-1 4.255207603488522e-1 4.308731526124347e-1
      4.362928696827302e-1 4.417807584015591e-1 4.473376762626976e-1 4.529644915458676e-1
      4.586620834524059e-1 4.644313422426380e-1 4.702731693749893e-1 4.761884776468328e-1
      4.821781913371217e-1 4.882432463508069e-1 4.943845903650722e-1 5.006031829774162e-1
      5.068999958555845e-1 5.132760128894014e-1 5.197322303445013e-1 5.262696570179950e-1
      5.328893143961028e-1 5.395922368137556e-1 5.463794716162196e-1 5.532520793227422e-1
      5.602111337922580e-1 5.672577223911884e-1 5.743929461633362e-1 5.816179200019336e-1
      5.889337728238431e-1 5.963416477459504e-1 6.038427022637855e-1 6.114381084323758e-1
      6.191290530493891e-1 6.269167378405704e-1 6.348023796475102e-1 6.427872106177865e-1
      6.508724783974813e-1 6.590594463261362e-1 6.673493936341474e-1 6.757436156426459e-1
      6.842434239659006e-1 6.928501467162530e-1 7.015651287116444e-1 7.103897316857434e-1
      7.193253345007164e-1 7.283733333626849e-1 7.375351420398772e-1 7.468121920835403e-1
      7.562059330516187e-1 7.657178327352483e-1 7.753493773881090e-1 7.851020719586458e-1
      7.949774403252286e-1 8.049770255342580e-1 8.151023900412641e-1 8.253551159550543e-1
      8.357368052849090e-1 8.462490801909091e-1 8.568935832373977e-1 8.676719776496295e-1
      8.785859475736626e-1 8.896371983394996e-1 9.008274567275581e-1 9.121584712384795e-1
      9.236320123663313e-1 9.352498728752607e-1 9.470138680796062e-1 9.589258361275535e-1
      9.709876382883472e-1 9.832011592431115e-1 9.955683073793475e-1 1.008091015089109e0
      1.020771239070956e0 1.033610960635684e0 1.046612186015908e0 1.059776946679548e0
      1.073107299647237e0 1.086605327813750e0 1.100273140273452e0 1.114112872649842e0
      1.128126687429266e0 1.142316774298791e0 1.156685350488361e0 1.171234661117242e0
      1.185966979544816e0 1.200884607725814e0 1.215989876569986e0 1.231285146306323e0
      1.246772806851841e0 1.262455278185007e0 1.278335010723876e0 1.294414485708962e0
      1.310696215590946e0 1.327182744423251e0 1.343876648259544e0 1.360780535556269e0
      1.377897047580201e0 1.395228858821171e0 1.412778677409949e0 1.430549245541390e0
      1.448543339902925e0 1.466763772108402e0 1.485213389137424e0 1.503895073780192e0
      1.522811745087934e0 1.541966358829033e0 1.561361907950852e0 1.581001423047403e0
      1.600887972832880e0 1.621024664621142e0 1.641414644811254e0 1.662061099379098e0
      1.682967254375214e0 1.704136376428846e0 1.725571773258387e0 1.747276794188206e0
      1.769254830671976e0 1.791509316822619e0 1.814043729948866e0 1.836861591098618e0
      1.859966465609106e0 1.883361963663974e0 1.907051740857398e0 1.931039498765253e0
      1.955328985523521e0 1.979923996413929e0 2.004828374456959e0 2.030046011012357e0
      2.055580846387133e0 2.081436870451268e0 2.107618123261131e0 2.134128695690733e0
      2.160972730070958e0 2.188154420836786e0 2.215678015182705e0 2.243547813726332e0
      2.271768171180383e0 2.300343497033134e0 2.329278256237377e0 2.358576969908110e0
      2.388244216028959e0 2.418284630167477e0 2.448702906199502e0 2.479503797042542e0
      2.510692115398458e0 2.542272734505453e0 2.574250588899504e0 2.606630675185429e0
      2.639418052817578e0 2.672617844890418e0 2.706235238939009e0 2.740275487749559e0
      2.774743910180208e0 2.809645891992078e0 2.844986886690841e0 2.880772416378825e0
      2.917008072617840e0 2.953699517302906e0 2.990852483546894e0 3.028472776576372e0
      3.066566274638672e0 3.105138929920356e0 3.144196769477300e0 3.183745896176387e0
      3.223792489649133e0 3.264342807257249e0 3.305403185070350e0 3.346980038856020e0
      3.389079865082238e0 3.431709241932512e0 3.474874830333711e0 3.518583374996832e0
      3.562841705470915e0 3.607656737210129e0 3.653035472654368e0 3.698985002323373e0
      3.745512505924628e0 3.792625253475245e0 3.840330606437867e0 3.888636018870958e0
      3.937549038593496e0 3.987077308364313e0 4.037228567076340e0 4.088010650965772e0
      4.139431494836539e0 4.191499133300121e0 4.244221702030944e0 4.297607439037654e0
      4.351664685950256e0 4.406401889323567e0 4.461827601956989e0 4.517950484230867e0
      4.574779305459755e0 4.632322945262574e0 4.690590394950125e0 4.749590758929975e0
      4.809333256129017e0 4.869827221434003e0 4.931082107150069e0 4.993107484477742e0
      5.055913045008429e0 5.119508602238725e0 5.183904093103852e0 5.249109579530251e0
      5.315135250007848e0 5.381991421181995e0 5.449688539465439e0 5.518237182670661e0
      5.587648061662607e0 5.657932022032345e0 5.729100045791689e0 5.801163253089122e0
      5.874132903947419e0 5.948020400022963e0 6.022837286387352e0 6.098595253331307e0
      6.175306138191273e0 6.252981927199102e0 6.331634757354833e0 6.411276918323213e0
      6.491920854353936e0 6.573579166226057e0 6.656264613216962e0 6.739990115095946e0
      6.824768754143030e0 6.910613777193061e0 6.997538597705519e0 7.085556797860484e0
      7.174682130680780e0 7.264928522180998e0 7.356310073543432e0 7.448841063321374e0
      7.542535949670257e0 7.637409372606672e0 7.733476156295986e0 7.830751311368615e0
      7.929250037265418e0 8.028987724612744e0 8.129979957627127e0 8.232242516550462e0
      8.335791380115651e0 8.440642728043269e0 8.546812943569778e0 8.654318616007330e0
      8.763176543335982e0 8.873403734828367e0 8.985017413707384e0 9.098035019837468e0
      9.212474212449481e0 9.328352872900114e0 9.445689107465835e0 9.564501250171986e0
      9.684807865657621e0 9.806627752076144e0 9.929979944032667e0 1.005488371555816e1
      1.018135858312102e1 1.030942430867664e1 1.043910090275516e1 1.057040862758825e1
      1.070336800027508e1 1.083799979598811e1 1.097432505121936e1 1.111236506706729e1
      1.125214141256523e1 1.139367592805156e1 1.153699072858224e1 1.168210820738647e1
      1.182905103936552e1 1.197784218463586e1 1.212850489211668e1 1.228106270316251e1
      1.243553945524174e1 1.259195928566114e1 1.275034663533746e1 1.291072625261636e1
      1.307312319713928e1 1.323756284375925e1 1.340407088650557e1 1.357267334259870e1
      1.374339655651545e1 1.391626720410529e1 1.409131229675867e1 1.426855918562738e1
      1.444803556589846e1 1.462976948112149e1 1.481378932759042e1 1.500012385878070e1
      1.518880218984187e1 1.537985380214707e1 1.557330854789943e1 1.576919665479652e1
      1.596754873075363e1 1.616839576868612e1 1.637176915135233e1 1.657770065625708e1
      1.678622246061694e1 1.699736714638814e1 1.721116770535734e1 1.742765754429690e1
      1.764687049018463e1 1.786884079548925e1 1.809360314352264e1 1.832119265385890e1
      1.855164488782208e1 1.878499585404263e1 1.902128201408370e1 1.926054028813861e1
      1.950280806079939e1 1.974812318689843e1 1.999652399742334e1 2.024804930550605e1
      2.050273841248775e1 2.076063111405952e1 2.102176770648068e1 2.128618899287515e1
      2.155393628960679e1 2.182505143273556e1 2.209957678455406e1 2.237755524020709e1
      2.265903023439392e1 2.294404574815500e1 2.323264631574429e1 2.352487703158756e1
      2.382078355732875e1 2.412041212896458e1 2.442380956406887e1 2.473102326910822e1
      2.504210124684898e1 2.535709210385811e1 2.567604505809792e1 2.599900994661633e1
      2.632603723333435e1 2.665717801693076e1 2.699248403882677e1 2.733200769127052e1
      2.767580202552340e1 2.802392076014966e1 2.837641828940976e1 2.873334969175986e1
      2.909477073845779e1 2.946073790227733e1 2.983130836633249e1 3.020654003301210e1
      3.058649153302755e1 3.097122223457379e1 3.136079225260557e1 3.175526245823091e1
      3.215469448822187e1 3.255915075464585e1 3.296869445461741e1 3.338338958017277e1
      3.380330092826913e1 3.422849411090882e1 3.465903556539175e1 3.509499256469619e1
      3.553643322799012e1 3.598342653127542e1 3.643604231816502e1 3.689435131079654e1
      3.735842512088257e1 3.782833626089998e1 3.830415815542057e1 3.878596515258330e1
      3.927383253571178e1 3.976783653507726e1 4.026805433980956e1 4.077456410995854e1
      4.128744498870612e1 4.180677711473313e1 4.233264163474095e1 4.286512071613055e1
      4.340429755984188e1 4.395025641335360e1 4.450308258384739e1 4.506286245153722e1
      4.562968348316612e1 4.620363424567365e1 4.678480442003402e1 4.737328481526944e1
      4.796916738263903e1 4.857254523000610e1 4.918351263638706e1 4.980216506668199e1
      5.042859918659190e1 5.106291287772257e1 5.170520525287860e1 5.235557667155054e1
      5.301412875559557e1 5.368096440511675e1 5.435618781454108e1 5.503990448889986e1
      5.573222126031470e1 5.643324630468944e1 5.714308915861363e1 5.786186073647745e1
      5.858967334780213e1 5.932664071478912e1 6.007287799008868e1 6.082850177479340e1
      6.159363013665710e1 6.236838262854276e1 6.315288030710369e1 6.394724575169803e1
      6.475160308354275e1 6.556607798510756e1 6.639079771975265e1 6.722589115161468e1
      6.807148876574118e1 6.892772268847985e1 6.979472670812325e1 7.067263629581316e1
      7.156158862670899e1 7.246172260142081e1 7.337317886771361e1 7.429609984248353e1
      7.523062973401029e1 7.617691456449101e1 7.713510219285546e1 7.810534233787012e1
      7.908778660153176e1 8.008258849275512e1 8.108990345135988e1 8.210988887235748e1
      8.314270413054523e1 8.418851060540868e1 8.524747170633693e1 8.631975289815680e1
      8.740552172698573e1 8.850494784641242e1 8.961820304400499e1 9.074546126815267e1
      9.188689865524674e1 9.304269355720088e1 9.421302656932017e1 9.539808055851896e1
      9.659804069189375e1 9.781309446565707e1 9.904343173443277e1
      </PP_R>
    <PP_RAB>
      1.424815571178931e-6 1.442737544795347e-6 1.460884949088410e-6 1.479260619626959e-6
      1.497867427646906e-6 1.516708280499858e-6 1.535786122107404e-6 1.555103933421111e-6
      1.574664732888298e-6 1.594471576923679e-6 1.614527560386933e-6 1.634835817066279e-6
      1.655399520168141e-6 1.676221882812964e-6 1.697306158537278e-6 1.718655641802060e-6
      1.740273668507505e-6 1.762163616514270e-6 1.784328906171262e-6 1.806773000850090e-6
      1.829499407486210e-6 1.852511677126895e-6 1.875813405486095e-6 1.899408233506273e-6
      1.923299847927314e-6 1.947491981862577e-6 1.971988415382210e-6 1.996792976103788e-6
      2.021909539790387e-6 2.047342030956187e-6 2.073094423479674e-6 2.099170741224573e-6
      2.125575058668584e-6 2.152311501540027e-6 2.179384247462498e-6 2.206797526607628e-6
      2.234555622356054e-6 2.262662871966712e-6 2.291123667254536e-6 2.319942455276698e-6
      2.349123739027457e-6 2.378672078141769e-6 2.408592089607735e-6 2.438888448488020e-6
      2.469565888650339e-6 2.500629203507132e-6 2.532083246764542e-6 2.563932933180823e-6
      2.596183239334272e-6 2.628839204400846e-6 2.661905930941522e-6 2.695388585699598e-6
      2.729292400408000e-6 2.763622672606751e-6 2.798384766470734e-6 2.833584113647836e-6
      2.869226214107668e-6 2.905316637000939e-6 2.941861021529652e-6 2.978865077828244e-6
      3.016334587855796e-6 3.054275406299479e-6 3.092693461489370e-6 3.131594756324749e-6
      3.170985369212085e-6 3.210871455014779e-6 3.251259246014890e-6 3.292155052886928e-6
      3.333565265683919e-6 3.375496354835867e-6 3.417954872160758e-6 3.460947451888308e-6
      3.504480811696568e-6 3.548561753761573e-6 3.593197165820214e-6 3.638394022246428e-6
      3.684159385140990e-6 3.730500405434958e-6 3.777424324007037e-6 3.824938472814974e-6
      3.873050276041185e-6 3.921767251252811e-6 3.971097010576342e-6 4.021047261887031e-6
      4.071625810013279e-6 4.122840557956128e-6 4.174699508124141e-6 4.227210763583792e-6
      4.280382529325577e-6 4.334223113546077e-6 4.388740928946114e-6 4.443944494045261e-6
      4.499842434512881e-6 4.556443484515887e-6 4.613756488083512e-6 4.671790400489156e-6
      4.730554289649712e-6 4.790057337542412e-6 4.850308841639545e-6 4.911318216361220e-6
      4.973094994546356e-6 5.035648828942229e-6 5.098989493712733e-6 5.163126885965596e-6
      5.228071027298863e-6 5.293832065366737e-6 5.360420275465209e-6 5.427846062137584e-6
      5.496119960800200e-6 5.565252639388641e-6 5.635254900024579e-6 5.706137680703661e-6
      5.777912057004581e-6 5.850589243819658e-6 5.924180597107199e-6 5.998697615665880e-6
      6.074151942931454e-6 6.150555368796066e-6 6.227919831450455e-6 6.306257419249310e-6
      6.385580372600104e-6 6.465901085875682e-6 6.547232109350904e-6 6.629586151163656e-6
      6.712976079300531e-6 6.797414923607452e-6 6.882915877825635e-6 6.969492301653128e-6
      7.057157722832291e-6 7.145925839263551e-6 7.235810521145697e-6 7.326825813143144e-6
      7.418985936580434e-6 7.512305291664354e-6 7.606798459734004e-6 7.702480205539146e-6
      7.799365479547216e-6 7.897469420279397e-6 7.996807356676018e-6 8.097394810491759e-6
      8.199247498720913e-6 8.302381336053244e-6 8.406812437360658e-6 8.512557120215195e-6
      8.619631907438707e-6 8.728053529684530e-6 8.837838928051731e-6 8.949005256732166e-6
      9.061569885690846e-6 9.175550403380083e-6 9.290964619487648e-6 9.407830567719625e-6
      9.526166508618184e-6 9.645990932414845e-6 9.767322561919627e-6 9.890180355446482e-6
      1.001458350977560e-5 1.014055146315295e-5 1.026810389832752e-5 1.039726074562684e-5
      1.052804218607104e-5 1.066046865452629e-5 1.079456084289771e-5 1.093033970336252e-5