<?xml version="1.0" encoding="UTF-8"?>
<UPF version="2.0.1">
  <PP_INFO><![CDATA[
Generated using "atomic" code by A. Dal Corso  v.6.3MaX
Author: TM
Generation date:  4Apr2023
Pseudopotential type: NC
Element: Xe
Functional: PBE
    Suggested minimum cutoff for wavefunctions:   0. Ry
    Suggested minimum cutoff for charge density:   0. Ry
    The Pseudo was generated with a Scalar-Relativistic Calculation
    L component and cutoff radius for Local Potential:  0   3.2500
    Pseudopotential contains additional information for GIPAW reconstruction.
    Valence configuration:
    nl pn  l   occ       Rcut    Rcut US       E pseu
    5P  2  1  6.00      3.250      3.250    -0.605214
    5S  1  0  2.00      1.951      1.951    -1.450998
    Generation configuration:
    5P  2  1  6.00      3.250      3.250    -0.605213
    5D  3  2  0.00      3.250      3.250     0.100000
    5S  1  0  2.00      3.250      3.250    -1.450998
    Pseudization used: troullier-martins
]]>
    <PP_INPUTFILE><![CDATA[
 &input
   title='Xe',
   zed=54.,
   rel=1,
   config='[Kr] 4d10.0 5s2.0 5p6.0 5d-2.0',
   iswitch=3,
   dft='PBE'
 /
 &inputp
   pseudotype=2,
   file_pseudopw='Xe.pbe-n-nc.UPF',
   author='TM',
   lloc=0,
   nlcc=.true.,
   tm=.true.
 /
3
5P  2  1  6.00  0.00  3.25  3.25  0.0
5D  3  2  0.00  0.10  3.25  3.25  0.0
5S  1  0  2.00  0.00  3.25  3.25  0.0
]]></PP_INPUTFILE>
  </PP_INFO>
  <!--
 END OF HUMAN READABLE SECTION 
-->
  <PP_HEADER generated="Generated using &quot;atomic&quot; code by A. Dal Corso  v.6.3MaX" author="TM" date=" 4Apr2023" comment="" element="Xe" pseudo_type="NC" relativistic="scalar" is_ultrasoft="false" is_paw="false" is_coulomb="false" has_so="false" has_wfc="false" has_gipaw="true" paw_as_gipaw="false" core_correction="true" functional="PBE" z_valence="8.000000000000e0" total_psenergy="-4.302129492881e1" wfc_cutoff="0.000000000000e0" rho_cutoff="0.000000000000e0" l_max="2" l_max_rho="4" l_local="0" mesh_size="1249" number_of_wfc="2" number_of_proj="2"/>
  <PP_MESH dx="1.250000000000e-2" mesh="1249" xmin="-7.000000000000e0" rmax="1.000000000000e2" zmesh="5.400000000000e1">
    <PP_R>
      1.688670306582438e-5 1.709911164201893e-5 1.731419198919597e-5 1.753197771409730e-5
      1.775250284618555e-5 1.797580184296127e-5 1.820190959534701e-5 1.843086143313910e-5
      1.866269313052797e-5 1.889744091168805e-5 1.913514145643772e-5 1.937583190597071e-5
      1.961954986865945e-5 1.986633342593143e-5 2.011622113821959e-5 2.036925205098738e-5
      2.062546570082969e-5 2.088490212165060e-5 2.114760185091866e-5 2.141360593600107e-5
      2.168295594057730e-5 2.195569395113357e-5 2.223186258353890e-5 2.251150498970397e-5
      2.279466486432372e-5 2.308138645170462e-5 2.337171455267804e-5 2.366569453160045e-5
      2.396337232344163e-5 2.426479444096223e-5 2.457000798198133e-5 2.487906063673568e-5
      2.519200069533137e-5 2.550887705528920e-5 2.582973922918516e-5 2.615463735238670e-5
      2.648362219088656e-5 2.681674514923511e-5 2.715405827857227e-5 2.749561428476086e-5
      2.784146653662170e-5 2.819166907427281e-5 2.854627661757315e-5 2.890534457467282e-5
      2.926892905067069e-5 2.963708685638082e-5 3.000987551720939e-5 3.038735328214307e-5
      3.076957913285063e-5 3.115661279289891e-5 3.154851473708471e-5 3.194534620088412e-5
      3.234716919002073e-5 3.275404649015408e-5 3.316604167669018e-5 3.358321912471510e-5
      3.400564401905384e-5 3.443338236445558e-5 3.486650099590698e-5 3.530506758907549e-5
      3.574915067088350e-5 3.619881963021605e-5 3.665414472876289e-5 3.711519711199702e-5
      3.758204882029137e-5 3.805477280017517e-5 3.853344291573202e-5 3.901813396014137e-5
      3.950892166736497e-5 4.000588272398064e-5 4.050909478116454e-5 4.101863646682438e-5
      4.153458739788524e-5 4.205702819272975e-5 4.258604048379511e-5 4.312170693032803e-5
      4.366411123130060e-5 4.421333813848840e-5 4.476947346971302e-5 4.533260412225154e-5
      4.590281808641405e-5 4.648020445929256e-5 4.706485345868256e-5 4.765685643717963e-5
      4.825630589645368e-5 4.886329550170226e-5 4.947792009628612e-5 5.010027571654864e-5
      5.073045960682165e-5 5.136857023462015e-5 5.201470730602802e-5 5.266897178127717e-5
      5.333146589052302e-5 5.400229314981791e-5 5.468155837728604e-5 5.536936770950112e-5
      5.606582861807066e-5 5.677104992642858e-5 5.748514182683905e-5 5.820821589761445e-5
      5.894038512054937e-5 5.968176389857457e-5 6.043246807363238e-5 6.119261494477745e-5
      6.196232328650504e-5 6.274171336730950e-5 6.353090696847657e-5 6.433002740311210e-5
      6.513919953540979e-5 6.595854980016165e-5 6.678820622251353e-5 6.762829843796934e-5
      6.847895771264689e-5 6.934031696378852e-5 7.021251078052979e-5 7.109567544492895e-5
      7.198994895326168e-5 7.289547103758302e-5 7.381238318756093e-5 7.474082867258441e-5
      7.568095256414937e-5 7.663290175852660e-5 7.759682499971444e-5 7.857287290268038e-5
      7.956119797689518e-5 8.056195465016238e-5 8.157529929274826e-5 8.260139024181484e-5
      8.364038782616047e-5 8.469245439127173e-5 8.575775432468973e-5 8.683645408169649e-5
      8.792872221132367e-5 8.903472938268862e-5 9.015464841166230e-5 9.128865428787131e-5
      9.243692420204106e-5 9.359963757368174e-5 9.477697607912317e-5 9.596912367990232e-5
      9.717626665150712e-5 9.839859361248287e-5 9.963629555390408e-5 1.008895658692171e-4
      1.021586003844587e-4 1.034435973888537e-4 1.047447576657983e-4 1.060622845242331e-4
      1.073963838304100e-4 1.087472640400602e-4 1.101151362309647e-4 1.115002141359363e-4
      1.129027141762155e-4 1.143228554952871e-4 1.157608599931215e-4 1.172169523608472e-4
      1.186913601158589e-4 1.201843136373683e-4 1.216960462024002e-4 1.232267940222440e-4
      1.247767962793605e-4 1.263462951647561e-4 1.279355359158246e-4 1.295447668546669e-4
      1.311742394268912e-4 1.328242082409019e-4 1.344949311076832e-4 1.361866690810821e-4
      1.378996864985989e-4 1.396342510226903e-4 1.413906336825919e-4 1.431691089166680e-4
      1.449699546152921e-4 1.467934521642684e-4 1.486398864887993e-4 1.505095460980039e-4
      1.524027231300006e-4 1.543197133975520e-4 1.562608164342876e-4 1.582263355415064e-4
      1.602165778355673e-4 1.622318542958783e-4 1.642724798134862e-4 1.663387732402799e-4
      1.684310574388115e-4 1.705496593327434e-4 1.726949099579320e-4 1.748671445141521e-4
      1.770667024174723e-4 1.792939273532906e-4 1.815491673300338e-4 1.838327747335373e-4
      1.861451063821034e-4 1.884865235822568e-4 1.908573921851990e-4 1.932580826439723e-4
      1.956889700713455e-4 1.981504342984246e-4 2.006428599340028e-4 2.031666364246572e-4
      2.057221581155982e-4 2.083098243122901e-4 2.109300393428403e-4 2.135832126211782e-4
      2.162697587110269e-4 2.189900973906781e-4 2.217446537185856e-4 2.245338580997796e-4
      2.273581463531192e-4 2.302179597793906e-4 2.331137452302592e-4 2.360459551780939e-4
      2.390150477866643e-4 2.420214869827311e-4 2.450657425285359e-4 2.481482900952006e-4
      2.512696113370543e-4 2.544301939668915e-4 2.576305318321781e-4 2.608711249922173e-4
      2.641524797962825e-4 2.674751089627385e-4 2.708395316591523e-4 2.742462735834148e-4
      2.776958670458836e-4 2.811888510525545e-4 2.847257713892858e-4 2.883071807070758e-4
      2.919336386084164e-4 2.956057117347338e-4 2.993239738549236e-4 3.030890059550079e-4
      3.069013963289121e-4 3.107617406703882e-4 3.146706421660941e-4 3.186287115898404e-4
      3.226365673980280e-4 3.266948358262808e-4 3.308041509872969e-4 3.349651549699317e-4
      3.391784979395219e-4 3.434448382394794e-4 3.477648424941557e-4 3.521391857130047e-4
      3.565685513960543e-4 3.610536316407036e-4 3.655951272498663e-4 3.701937478414710e-4
      3.748502119593406e-4 3.795652471854678e-4 3.843395902536989e-4 3.891739871648525e-4
      3.940691933032810e-4 3.990259735549031e-4 4.040451024267179e-4 4.091273641678230e-4
      4.142735528919555e-4 4.194844727015735e-4 4.247609378134987e-4 4.301037726861402e-4
      4.355138121483168e-4 4.409919015297015e-4 4.465388967929051e-4 4.521556646672229e-4
      4.578430827840630e-4 4.636020398140768e-4 4.694334356060176e-4 4.753381813273414e-4
      4.813171996065805e-4 4.873714246775059e-4 4.935018025251015e-4 4.997092910333794e-4
      5.059948601350475e-4 5.123594919630663e-4 5.188041810041079e-4 5.253299342539464e-4
      5.319377713748043e-4 5.386287248546755e-4 5.454038401686534e-4 5.522641759422910e-4
      5.592108041170093e-4 5.662448101175944e-4 5.733672930217944e-4 5.805793657320535e-4
      5.878821551494065e-4 5.952768023495569e-4 6.027644627611746e-4 6.103463063464327e-4
      6.180235177838163e-4 6.257972966532326e-4 6.336688576234451e-4 6.416394306418709e-4
      6.497102611267600e-4 6.578826101617956e-4 6.661577546931420e-4 6.745369877289673e-4
      6.830216185414817e-4 6.916129728715115e-4 7.003123931356497e-4 7.091212386360123e-4
      7.180408857726297e-4 7.270727282585153e-4 7.362181773374319e-4 7.454786620044047e-4
      7.548556292290042e-4 7.643505441814360e-4 7.739648904614800e-4 7.837001703303022e-4
      7.935579049451887e-4 8.035396345972291e-4 8.136469189519893e-4 8.238813372932135e-4
      8.342444887695894e-4 8.447379926446187e-4 8.553634885496319e-4 8.661226367399811e-4
      8.770171183544617e-4 8.880486356779903e-4 8.992189124075921e-4 9.105296939217329e-4
      9.219827475530360e-4 9.335798628644330e-4 9.453228519287855e-4 9.572135496120261e-4
      9.692538138598589e-4 9.814455259880702e-4 9.937905909764842e-4 1.006290937766620e-3
      1.018948519563097e-3 1.031765314138822e-3 1.044743324144025e-3 1.057884577419172e-3
      1.071191127311824e-3 1.084665052997473e-3 1.098308459804421e-3 1.112123479542740e-3
      1.126112270837370e-3 1.140277019465412e-3 1.154619938697657e-3 1.169143269644414e-3
      1.183849281605696e-3 1.198740272425788e-3 1.213818568852303e-3 1.229086526899734e-3
      1.244546532217588e-3 1.260201000463152e-3 1.276052377678937e-3 1.292103140674883e-3
      1.308355797415363e-3 1.324812887411060e-3 1.341476982115768e-3 1.358350685328188e-3
      1.375436633598776e-3 1.392737496641712e-3 1.410255977752043e-3 1.427994814228087e-3
      1.445956777799133e-3 1.464144675058531e-3 1.482561347902233e-3 1.501209673972838e-3
      1.520092567109237e-3 1.539212977801899e-3 1.558573893653896e-3 1.578178339847720e-3
      1.598029379617972e-3 1.618130114730007e-3 1.638483685964580e-3 1.659093273608605e-3
      1.679962097952084e-3 1.701093419791276e-3 1.722490540938213e-3 1.744156804736605e-3
      1.766095596584253e-3 1.788310344462016e-3 1.810804519469445e-3 1.833581636367154e-3
      1.856645254125995e-3 1.879998976483168e-3 1.903646452505305e-3 1.927591377158642e-3
      1.951837491886377e-3 1.976388585193263e-3 2.001248493237580e-3 2.026421100430537e-3
      2.051910340043221e-3 2.077720194821180e-3 2.103854697606736e-3 2.130317931969119e-3
      2.157114032842538e-3 2.184247187172270e-3 2.211721634568882e-3 2.239541667970680e-3
      2.267711634314481e-3 2.296235935214838e-3 2.325119027651802e-3 2.354365424667326e-3
      2.383979696070449e-3 2.413966469151327e-3 2.444330429404264e-3 2.475076321259824e-3
      2.506208948826161e-3 2.537733176639676e-3 2.569653930425098e-3 2.601976197865152e-3
      2.634705029379883e-3 2.667845538915801e-3 2.701402904744952e-3 2.735382370274016e-3
      2.769789244863614e-3 2.804628904657902e-3 2.839906793424602e-3 2.875628423405611e-3
      2.911799376178290e-3 2.948425303527599e-3 2.985511928329201e-3 3.023065045443674e-3
      3.061090522621973e-3 3.099594301422270e-3 3.138582398138337e-3 3.178060904739608e-3
      3.218035989823059e-3 3.258513899577065e-3 3.299500958757379e-3 3.341003571675386e-3
      3.383028223198792e-3 3.425581479764894e-3 3.468669990406612e-3 3.512300487791395e-3
      3.556479789273226e-3 3.601214797957846e-3 3.646512503781371e-3 3.692379984602503e-3
      3.738824407308434e-3 3.785853028934705e-3 3.833473197799125e-3 3.881692354649960e-3
      3.930518033828576e-3 3.979957864446679e-3 4.030019571578388e-3 4.080710977467295e-3
      4.132040002748701e-3 4.184014667687238e-3 4.236643093430047e-3 4.289933503275721e-3
      4.343894223959220e-3 4.398533686952928e-3 4.453860429784115e-3 4.509883097368904e-3
      4.566610443363085e-3 4.624051331529884e-3 4.682214737124935e-3 4.741109748298705e-3
      4.800745567516512e-3 4.861131512996434e-3 4.922277020165311e-3 4.984191643133035e-3
      5.046885056185419e-3 5.110367055295800e-3 5.174647559655694e-3 5.239736613224687e-3
      5.305644386299817e-3 5.372381177104729e-3 5.439957413398758e-3 5.508383654106309e-3
      5.577670590966709e-3 5.647829050204801e-3 5.718869994222590e-3 5.790804523312109e-3
      5.863643877389878e-3 5.937399437753164e-3 6.012082728858329e-3 6.087705420121559e-3
      6.164279327742216e-3 6.241816416549158e-3 6.320328801870257e-3 6.399828751425454e-3
      6.480328687243619e-3 6.561841187603497e-3 6.644378988999106e-3 6.727954988129841e-3
      6.812582243915600e-3 6.898273979537278e-3 6.985043584502909e-3 7.072904616739799e-3
      7.161870804712990e-3 7.251956049570351e-3 7.343174427314684e-3 7.435540191003088e-3
      7.529067772974062e-3 7.623771787102569e-3 7.719667031083488e-3 7.816768488743806e-3
      7.915091332383829e-3 8.014650925147915e-3 8.115462823424991e-3 8.217542779279258e-3
      8.320906742911514e-3 8.425570865151364e-3 8.531551499980853e-3 8.638865207089792e-3
      8.747528754463234e-3 8.857559121001557e-3 8.968973499173382e-3 9.081789297701969e-3
      9.196024144285367e-3 9.311695888350757e-3 9.428822603843505e-3 9.547422592051191e-3
      9.667514384463267e-3 9.789116745666625e-3 9.912248676277599e-3 1.003692941591088e-2
      1.016317844618568e-2 1.029101549376985e-2 1.042046053346215e-2 1.055153379131339e-2
      1.068425574778679e-2 1.081864714095807e-2 1.095472896975584e-2 1.109252249724270e-2
      1.123204925393766e-2 1.137333104118033e-2 1.151638993453741e-2 1.166124828725204e-2
      1.180792873373655e-2 1.195645419310911e-2 1.210684787277495e-2 1.225913327205248e-2
      1.241333418584518e-2 1.256947470835953e-2 1.272757923686986e-2 1.288767247553041e-2
      1.304977943923544e-2 1.321392545752783e-2 1.338013617855690e-2 1.354843757308596e-2
      1.371885593855033e-2 1.389141790316633e-2 1.406615043009202e-2 1.424308082164021e-2
      1.442223672354453e-2 1.460364612927920e-2 1.478733738443291e-2 1.497333919113801e-2
      1.516168061255523e-2 1.535239107741482e-2 1.554550038461495e-2 1.574103870787775e-2
      1.593903660046404e-2 1.613952499994738e-2 1.634253523304807e-2 1.654809902052807e-2
      1.675624848214740e-2 1.696701614168293e-2 1.718043493201025e-2 1.739653820024955e-2
      1.761535971297619e-2 1.783693366149671e-2 1.806129466719136e-2 1.828847778692374e-2
      1.851851851851852e-2 1.875145280630805e-2 1.898731704674869e-2 1.922614809410788e-2
      1.946798326622268e-2 1.971286035033073e-2 1.996081760897466e-2 2.021189378598059e-2
      2.046612811251200e-2 2.072356031319966e-2 2.098423061234864e-2 2.124817974022357e-2
      2.151544893941266e-2 2.178607997127206e-2 2.206011512245109e-2 2.233759721149964e-2
      2.261856959555871e-2 2.290307617713491e-2 2.319116141096047e-2 2.348287031093927e-2
      2.377824845718040e-2 2.407734200312021e-2 2.438019768273374e-2 2.468686281783710e-2
      2.499738532548156e-2 2.531181372544067e-2 2.563019714779169e-2 2.595258534059210e-2
      2.627902867765293e-2 2.660957816640973e-2 2.694428545589262e-2 2.728320284479659e-2
      2.762638328965316e-2 2.797388041310506e-2 2.832574851228482e-2 2.868204256729876e-2
      2.904281824981795e-2 2.940813193177674e-2 2.977804069418118e-2 3.015260233602798e-2
      3.053187538333570e-2 3.091591909828968e-2 3.130479348850170e-2 3.169855931638640e-2
      3.209727810865548e-2 3.250101216593145e-2 3.290982457248220e-2 3.332377920607795e-2
      3.374294074797240e-2 3.416737469300928e-2 3.459714735985597e-2 3.503232590136612e-2
      3.547297831507215e-2 3.591917345381028e-2 3.637098103647868e-2 3.682847165893133e-2
      3.729171680500883e-2 3.776078885770770e-2 3.823576111049051e-2 3.871670777873809e-2
      3.920370401134583e-2 3.969682590246592e-2 4.019615050339709e-2 4.070175583462413e-2
      4.121372089800869e-2 4.173212568913349e-2 4.225705120980193e-2 4.278857948069454e-2
      4.332679355418504e-2 4.387177752731744e-2 4.442361655494626e-2 4.498239686304238e-2
      4.554820576216575e-2 4.612113166110801e-2 4.670126408070647e-2 4.728869366783198e-2
      4.788351220955272e-2 4.848581264747596e-2 4.909568909227052e-2 4.971323683837171e-2
      5.033855237887121e-2 5.097173342059458e-2 5.161287889936762e-2 5.226208899547592e-2
      5.291946514931788e-2 5.358511007725484e-2 5.425912778766120e-2 5.494162359717535e-2
      5.563270414715614e-2 5.633247742034566e-2 5.704105275774132e-2 5.775854087568140e-2
      5.848505388314386e-2 5.922070529926434e-2 5.996561007107339e-2 6.071988459145691e-2
      6.148364671734354e-2 6.225701578811909e-2 6.304011264427441e-2 6.383305964628661e-2
      6.463598069373779e-2 6.544900124467544e-2 6.627224833521445e-2 6.710585059938779e-2
      6.794993828924532e-2 6.880464329520563e-2 6.967009916666509e-2 7.054644113286413e-2
      7.143380612401802e-2 7.233233279271213e-2 7.324216153556624e-2 7.416343451517276e-2
      7.509629568230881e-2 7.604089079842984e-2 7.699736745844464e-2 7.796587511377703e-2
      7.894656509571893e-2 7.993959063907489e-2 8.094510690610662e-2 8.196327101077662e-2
      8.299424204329748e-2 8.403818109499088e-2 8.509525128345723e-2 8.616561777806425e-2
      8.724944782575452e-2 8.834691077717782e-2 8.945817811315340e-2 9.058342347146308e-2
      9.172282267398357e-2 9.287655375415858e-2 9.404479698481632e-2 9.522773490633874e-2
      9.642555235518241e-2 9.763843649276092e-2 9.886657683468851e-2 1.001101652803920e-1
      1.013693961430964e-1 1.026444661801856e-1 1.039355746239473e-1 1.052429232127027e-1
      1.065667162223283e-1 1.079071604981755e-1 1.092644654873892e-1 1.106388432716356e-1
      1.120305086002398e-1 1.134396789237405e-1 1.148665744278680e-1 1.163114180679475e-1
      1.177744356037376e-1 1.192558556347049e-1 1.207559096357428e-1 1.222748319933414e-1
      1.238128600422087e-1 1.253702341023569e-1 1.269471975166515e-1 1.285439966888340e-1
      1.301608811220241e-1 1.317981034577036e-1 1.334559195151938e-1 1.351345883316266e-1
      1.368343722024195e-1 1.385555367222608e-1 1.402983508266083e-1 1.420630868337116e-1
      1.438500204871626e-1 1.456594309989795e-1 1.474916010932367e-1 1.493468170502384e-1
      1.512253687512527e-1 1.531275497238051e-1 1.550536571875419e-1 1.570039921006737e-1
      1.589788592069981e-1 1.609785670835185e-1 1.630034281886595e-1 1.650537589110877e-1
      1.671298796191506e-1 1.692321147109320e-1 1.713607926649424e-1 1.735162460914433e-1
      1.756988117844172e-1 1.779088307741947e-1 1.801466483807387e-1 1.824126142676034e-1
      1.847070824965691e-1 1.870304115829640e-1 1.893829645516854e-1 1.917651089939203e-1
      1.941772171245846e-1 1.966196658404817e-1 1.990928367791918e-1 2.015971163787064e-1
      2.041328959378075e-1 2.067005716772105e-1 2.093005448014739e-1 2.119332215616874e-1
      2.145990133189519e-1 2.172983366086521e-1 2.200316132055443e-1 2.227992701896581e-1
      2.256017400130273e-1 2.284394605672642e-1 2.313128752519780e-1 2.342224330440597e-1
      2.371685885678341e-1 2.401518021660951e-1 2.431725399720376e-1 2.462312739820887e-1
      2.493284821296613e-1 2.524646483598290e-1 2.556402627049462e-1 2.588558213612157e-1
      2.621118267662186e-1 2.654087876774250e-1 2.687472192516838e-1 2.721276431257211e-1
      2.755505874976454e-1 2.790165872094776e-1 2.825261838307256e-1 2.860799257430005e-1
      2.896783682257069e-1 2.933220735428043e-1 2.970116110306606e-1 3.007475571870159e-1
      3.045304957610568e-1 3.083610178446323e-1 3.122397219646120e-1 3.161672141764048e-1
      3.201441081586605e-1 3.241710253091536e-1 3.282485948418823e-1 3.323774538853825e-1
      3.365582475822790e-1 3.407916291900939e-1 3.450782601833151e-1 3.494188103567571e-1
      3.538139579302161e-1 3.582643896544411e-1 3.627708009184448e-1 3.673338958581543e-1
      3.719543874664383e-1 3.766329977045117e-1 3.813704576147414e-1 3.861675074348785e-1
      3.910248967137153e-1 3.959433844282101e-1 4.009237391020754e-1 4.059667389258606e-1
      4.110731718785494e-1 4.162438358506782e-1 4.214795387690135e-1 4.267810987227890e-1
      4.321493440915319e-1 4.375851136745046e-1 4.430892568217621e-1 4.486626335668699e-1
      4.543061147612847e-1 4.600205822104232e-1 4.658069288114518e-1 4.716660586927980e-1
      4.775988873554271e-1 4.836063418158887e-1 4.896893607511630e-1 4.958488946453362e-1
      5.020859059381094e-1 5.084013691751870e-1 5.147962711605498e-1 5.212716111106418e-1
      5.278284008105059e-1 5.344676647718710e-1 5.411904403932396e-1 5.479977781219811e-1
      5.548907416184634e-1 5.618704079222585e-1 5.689378676204248e-1 5.760942250179196e-1
      5.833405983101475e-1 5.906781197576759e-1 5.981079358631616e-1 6.056312075504847e-1
      6.132491103461540e-1 6.209628345629809e-1 6.287735854860657e-1 6.366825835611339e-1
      6.446910645852232e-1 6.528002798997877e-1 6.610114965862205e-1 6.693259976638322e-1
      6.777450822903340e-1 6.862700659648259e-1 6.949022807333519e-1 7.036430753970334e-1
      7.124938157228174e-1 7.214558846568893e-1 7.305306825407510e-1 7.397196273300358e-1
      7.490241548160635e-1 7.584457188501815e-1 7.679857915709411e-1 7.776458636341113e-1
      7.874274444456071e-1 7.973320623973327e-1 8.073612651059909e-1 8.175166196549128e-1
      8.277997128389048e-1 8.382121514121993e-1 8.487555623395096e-1 8.594315930502404e-1
      8.702419116959138e-1 8.811882074108093e-1 8.922721905759040e-1 9.034955930861196e-1
      9.148601686209295e-1 9.263676929183854e-1 9.380199640525680e-1 9.498188027145501e-1
      9.617660524968795e-1 9.738635801816379e-1 9.861132760321425e-1 9.985170540882883e-1
      1.011076852465634e0 1.023794633658231e0 1.036672384845262e0 1.049712118201553e0
      1.062915871211967e0 1.076285706989778e0 1.089823714599027e0 1.103532009380944e0
      1.117412733284483e0 1.131468055200988e0 1.145700171303109e0 1.160111305387943e0
      1.174703709224506e0 1.189479662905592e0 1.204441475204019e0 1.219591483933402e0
      1.234932056313430e0 1.250465589339744e0 1.266194510158486e0 1.282121276445531e0
      1.298248376790516e0 1.314578331085684e0 1.331113690919612e0 1.347857039975921e0
      1.364810994436960e0 1.381978203392609e0 1.399361349254198e0 1.416963148173628e0
      1.434786350467796e0 1.452833741048318e0 1.471108139856691e0 1.489612402304913e0
      1.508349419721632e0 1.527322119803947e0 1.546533467074839e0 1.565986463346407e0
      1.585684148188901e0 1.605629599405646e0 1.625825933513980e0 1.646276306232191e0
      1.666983912972626e0 1.687951989340971e0 1.709183811641813e0 1.730682697390588e0
      1.752452005831929e0 1.774495138464572e0 1.796815539572842e0 1.819416696764816e0
      1.842302141517295e0 1.865475449727576e0 1.888940242272217e0 1.912700185572794e0
      1.936758992168782e0 1.961120421297667e0 1.985788279482307e0 2.010766421125733e0
      2.036058749113400e0 2.061669215423006e0 2.087601821742024e0 2.113860620092945e0
      2.140449713466438e0 2.167373256462443e0 2.194635455939321e0 2.222240571671214e0
      2.250192917013611e0 2.278496859577343e0 2.307156821911027e0 2.336177282192077e0
      2.365562774926464e0 2.395317891657203e0 2.425447281681826e0 2.455955652778827e0
      2.486847771943250e0 2.518128466131576e0 2.549802623015902e0 2.581875191747688e0
      2.614351183731056e0 2.647235673405815e0 2.680533799040392e0 2.714250763534651e0
      2.748391835232900e0 2.782962348747055e0 2.817967705790178e0 2.853413376020535e0
      2.889304897896206e0 2.925647879540509e0 2.962447999618272e0 2.999711008223118e0
      3.037442727775963e0 3.075649053934743e0 3.114335956515657e0 3.153509480425947e0
      3.193175746608414e0 3.233340952997860e0 3.274011375489490e0 3.315193368919568e0
      3.356893368058359e0 3.399117888615555e0 3.441873528258413e0 3.485166967642602e0
      3.529004971456111e0 3.573394389476233e0 3.618342157639832e0 3.663855299127143e0
      3.709940925459108e0 3.756606237608609e0 3.803858527125618e0 3.851705177276493e0
      3.900153664197680e0 3.949211558063816e0 3.998886524270631e0 4.049186324632670e0
      4.100118818596059e0 4.151691964466616e0 4.203913820653298e0 4.256792546927386e0
      4.310336405697449e0 4.364553763300345e0 4.419453091308516e0 4.475042967853644e0
      4.531332078967044e0 4.588329219936858e0 4.646043296682307e0 4.704483327145319e0
      4.763658442699536e0 4.823577889577162e0 4.884251030313690e0 4.945687345210780e0
      5.007896433817648e0 5.070888016430936e0 5.134671935613592e0 5.199258157732769e0
      5.264656774517054e0 5.330878004633395e0 5.397932195283707e0 5.465829823821709e0
      5.534581499390010e0 5.604197964577775e0 5.674690097099345e0 5.746068911493823e0
      5.818345560846189e0 5.891531338529965e0 5.965637679971787e0 6.040676164438302e0
      6.116658516845350e0 6.193596609590093e0 6.271502464406066e0 6.350388254241563e0
      6.430266305161761e0 6.511149098274608e0 6.593049271681094e0 6.675979622449957e0
      6.759953108617202e0 6.844982851210911e0 6.931082136301336e0 7.018264417076955e0
      7.106543315946523e0 7.195932626667570e0 7.286446316501786e0 7.378098528397333e0
      7.470903583198798e0 7.564875981884825e0 7.660030407833866e0 7.756381729118598e0
      7.853945000828974e0 7.952735467424702e0 8.052768565117198e0 8.154059924281462e0
      8.256625371898473e0 8.360480934028065e0 8.465642838313128e0 8.572127516515177e0
      8.679951607081797e0 8.789131957746536e0 8.899685628161285e0 9.011629892561986e0
      9.124982242467718e0 9.239760389413741e0 9.355982267719064e0 9.473666037288597e0
      9.592830086450777e0 9.713493034830750e0 9.835673736259650e0 9.959391281720693e0
      1.008466500233203e1 1.021151447236739e1 1.033995951231456e1 1.047002019197232e1
      1.060171683358652e1 1.073507001502531e1 1.087010057299461e1 1.100682960629386e1
      1.114527847911263e1 1.128546882436904e1 1.142742254708970e1 1.157116182783261e1
      1.171670912615285e1 1.186408718411187e1 1.201331902983109e1 1.216442798109000e1
      1.231743764896966e1 1.247237194154203e1 1.262925506760547e1 1.278811154046767e1
      1.294896618177567e1 1.311184412539443e1 1.327677082133407e1 1.344377203972632e1
      1.361287387485137e1 1.378410274921495e1 1.395748541767706e1 1.413304897163244e1
      1.431082084324352e1 1.449082880972697e1 1.467310099769374e1 1.485766588754406e1
      1.504455231791748e1 1.523378949019893e1 1.542540697308165e1 1.561943470718710e1
      1.581590300974355e1 1.601484257932300e1 1.621628450063789e1 1.642026024939832e1
      1.662680169722997e1 1.683594111665430e1 1.704771118613113e1 1.726214499516460e1
      1.747927604947370e1 1.769913827622736e1 1.792176602934586e1 1.814719409486860e1
      1.837545769638938e1 1.860659250056040e1 1.884063462266502e1 1.907762063226100e1
      1.931758755889452e1 1.956057289788602e1 1.980661461618915e1 2.005575115832289e1
      2.030802145237886e1 2.056346491610380e1 2.082212146305853e1 2.108403150885484e1
      2.134923597747016e1 2.161777630764232e1 2.188969445934430e1 2.216503292034044e1
      2.244383471282553e1 2.272614340014679e1 2.301200309361104e1 2.330145845937698e1
      2.359455472543434e1 2.389133768867108e1 2.419185372202894e1 2.449614978174958e1
      2.480427341471147e1 2.511627276585905e1 2.543219658572579e1 2.575209423805120e1
      2.607601570749436e1 2.640401160744393e1 2.673613318792649e1 2.707243234361481e1
      2.741296162193605e1 2.775777423128282e1 2.810692404932691e1 2.846046563143764e1
      2.881845421920660e1 2.918094574907886e1 2.954799686109350e1 2.991966490773362e1
      3.029600796288754e1 3.067708483092343e1 3.106295505587710e1 3.145367893075634e1
      3.184931750696156e1 3.224993260382513e1 3.265558681827111e1 3.306634353459568e1
      3.348226693437154e1 3.390342200647616e1 3.432987455724627e1 3.476169122076068e1
      3.519893946925150e1 3.564168762364718e1 3.609000486424768e1 3.654396124153385e1
      3.700362768711335e1 3.746907602480336e1 3.794037898185366e1 3.841761020031025e1
      3.890084424852181e1 3.939015663279164e1 3.988562380917519e1 4.038732319542684e1
      4.089533318309650e1 4.140973314977814e1 4.193060347151327e1 4.245802553534923e1
      4.299208175205662e1 4.353285556900588e1 4.408043148320604e1 4.463489505450784e1
      4.519633291897224e1 4.576483280240788e1 4.634048353407825e1 4.692337506058119e1
      4.751359845990377e1 4.811124595565279e1 4.871641093146549e1 4.932918794560059e1
      4.994967274571315e1 5.057796228381570e1 5.121415473142667e1 5.185834949491044e1
      5.251064723100950e1 5.317114986257207e1 5.383996059447830e1 5.451718392976556e1
      5.520292568595793e1 5.589729301160006e1 5.660039440299907e1 5.731233972117804e1
      5.803324020904121e1 5.876320850875659e1 5.950235867935625e1 6.025080621455793e1
      6.100866806081196e1 6.177606263557349e1 6.255310984580620e1 6.333993110671773e1
      6.413664936073065e1 6.494338909669333e1 6.576027636933060e1 6.658743881894090e1
      6.742500569133998e1 6.827310785805544e1 6.913187783677657e1 7.000144981205948e1
      7.088195965629456e1 7.177354495093654e1 7.267634500800139e1 7.359050089183504e1
      7.451615544115395e1 7.545345329136483e1 7.640254089716385e1 7.736356655542011e1
      7.833668042834820e1 7.932203456697026e1 8.031978293487539e1 8.133008143227606e1
      8.235308792036774e1 8.338896224599578e1 8.443786626663076e1 8.549996387566008e1
      8.657542102799615e1 8.766440576600678e1 8.876708824577308e1 8.988364076367569e1
      9.101423778331730e1 9.215905596278263e1 9.331827418224105e1 9.449207357189810e1
      9.568063754029621e1 9.688415180297376e1 9.810280441148304e1 9.933678578277313e1
      1.005862887289442e2
      </PP_R>
    <PP_RAB>
      2.110837883228047e-7 2.137388955252367e-7 2.164273998649496e-7 2.191497214262162e-7