<?xml version="1.0" encoding="UTF-8"?>
<UPF version="2.0.1">
  <PP_INFO><![CDATA[
Generated using "atomic" code by A. Dal Corso  v.6.3MaX
Author: ADC
Generation date: 23May2022
Pseudopotential type: USPP
Element:  K
Functional: PBE
    Suggested minimum cutoff for wavefunctions:  41. Ry
    Suggested minimum cutoff for charge density: 277. Ry
    The Pseudo was generated with a Scalar-Relativistic Calculation
    Local Potential by smoothing AE potential with Bessel fncs, cutoff radius:   1.5000
    Pseudopotential contains additional information for GIPAW reconstruction.
    Valence configuration:
    nl pn  l   occ       Rcut    Rcut US       E pseu
    3S  1  0  2.00      1.200      1.300    -2.597645
    4S  2  0  1.00      1.200      1.300    -0.170438
    3P  2  1  6.00      1.400      1.600    -1.382750
    4P  3  1  0.00      1.400      1.600    -0.059132
    Generation configuration:
    3S  1  0  2.00      1.200      1.300    -2.597649
    4S  2  0  1.00      1.200      1.300    -0.170441
    3P  2  1  6.00      1.400      1.600    -1.382755
    4P  3  1  0.00      1.400      1.600    -0.059133
    3D  3  2  0.00      1.200      1.700     0.050000
    3D  3  2  0.00      1.200      1.700     1.000000
    Pseudization used: troullier-martins
]]>
    <PP_INPUTFILE><![CDATA[
 &input
   title='K',
   zed=19.,
   rel=1,
   config='[Ar] 4s1 4p0 3d-1',
   iswitch=3,
   dft='PBE'
 /
 &inputp
   lpaw=.false.,
   pseudotype=3,
   file_pseudopw='K.pbe-spn-rrkjus_psl.1.0.0.UPF',
   author='ADC',
   lloc=-1,
   rcloc=1.5,
   which_augfun='PSQ',
   rmatch_augfun_nc=.true.,
   nlcc=.true.,
   new_core_ps=.true.,
   rcore=1.0,
   tm=.true.
 /
6
3S  1  0  2.00  0.00  1.20  1.30  0.0
4S  2  0  1.00  0.00  1.20  1.30  0.0
3P  2  1  6.00  0.00  1.40  1.60  0.0
4P  3  1  0.00  0.00  1.40  1.60  0.0
3D  3  2  0.00  0.05  1.20  1.70  0.0
3D  3  2  0.00  1.00  1.20  1.70  0.0
]]></PP_INPUTFILE>
  </PP_INFO>
  <!--
 END OF HUMAN READABLE SECTION 
-->
  <PP_HEADER generated="Generated using &quot;atomic&quot; code by A. Dal Corso  v.6.3MaX" author="ADC" date="23May2022" comment="" element=" K" pseudo_type="USPP" relativistic="scalar" is_ultrasoft="true" is_paw="false" is_coulomb="false" has_so="false" has_wfc="false" has_gipaw="true" paw_as_gipaw="false" core_correction="true" functional="PBE" z_valence="9.000000000000e0" total_psenergy="-5.869948069092e1" wfc_cutoff="4.087562317274e1" rho_cutoff="2.773005362683e2" l_max="2" l_max_rho="4" l_local="-1" mesh_size="1165" number_of_wfc="4" number_of_proj="6"/>
  <PP_MESH dx="1.250000000000e-2" mesh="1165" xmin="-7.000000000000e0" rmax="1.000000000000e2" zmesh="1.900000000000e1">
    <PP_R>
      4.799378766076401e-5 4.859747519310643e-5 4.920875617982012e-5 4.982772613480284e-5
      5.045448177336946e-5 5.108912102736363e-5 5.173174306045993e-5 5.238244828365850e-5
      5.304133837097424e-5 5.370851627532392e-5 5.438408624461248e-5 5.506815383802204e-5
      5.576082594250580e-5 5.646221078948931e-5 5.717241797178199e-5 5.789155846070097e-5
      5.861974462341069e-5 5.935709024048066e-5 6.010371052366354e-5 6.085972213389778e-5
      6.162524319953548e-5 6.240039333480066e-5 6.318529365847898e-5 6.398006681284287e-5
      6.478483698281479e-5 6.559972991537101e-5 6.642487293919025e-5 6.726039498454865e-5
      6.810642660346568e-5 6.896309999010317e-5 6.983054900142061e-5 7.070890917809090e-5
      7.159831776567862e-5 7.249891373608510e-5 7.341083780926310e-5 7.433423247520431e-5
      7.526924201620391e-5 7.621601252940503e-5 7.717469194962647e-5 7.814543007247826e-5
      7.912837857776697e-5 8.012369105319641e-5 8.113152301836582e-5 8.215203194907012e-5
      8.318537730190616e-5 8.423172053918758e-5 8.529122515417404e-5 8.636405669661716e-5
      8.745038279862809e-5 8.855037320087062e-5 8.966419977908286e-5 9.079203657093380e-5
      9.193405980321684e-5 9.309044791938529e-5 9.426138160743525e-5 9.544704382813764e-5
      9.664761984362668e-5 9.786329724634744e-5 9.909426598836722e-5 1.003407184110567e-4
      1.016028492751426e-4 1.028808557911404e-4 1.041749376501683e-4 1.054852970551494e-4
      1.068121387524070e-4 1.081556700636557e-4 1.095161009183963e-4 1.108936438867176e-4
      1.122885142125109e-4 1.137009298471029e-4 1.151311114833097e-4 1.165792825899219e-4
      1.180456694466212e-4 1.195305011793372e-4 1.210340097960493e-4 1.225564302230375e-4
      1.240980003415912e-4 1.256589610251775e-4 1.272395561770791e-4 1.288400327685044e-4
      1.304606408771768e-4 1.321016337264105e-4 1.337632677246767e-4 1.354458025056684e-4
      1.371495009688683e-4 1.388746293206275e-4 1.406214571157606e-4 1.423902572996646e-4
      1.441813062509667e-4 1.459948838247099e-4 1.478312733960796e-4 1.496907619046825e-4
      1.515736398993812e-4 1.534802015836930e-4 1.554107448617603e-4 1.573655713848979e-4
      1.593449865987271e-4 1.613492997909022e-4 1.633788241394373e-4 1.654338767616410e-4
      1.675147787636666e-4 1.696218552906856e-4 1.717554355776920e-4 1.739158530009464e-4
      1.761034451300669e-4 1.783185537807743e-4 1.805615250683018e-4 1.828327094614765e-4
      1.851324618374804e-4 1.874611415373015e-4 1.898191124218805e-4 1.922067429289655e-4
      1.946244061306806e-4 1.970724797918200e-4 1.995513464288741e-4 2.020613933697981e-4
      2.046030128145332e-4 2.071766018962886e-4 2.097825627435943e-4 2.124213025431346e-4
      2.150932336033720e-4 2.177987734189704e-4 2.205383447360305e-4 2.233123756181442e-4
      2.261212995132810e-4 2.289655553215142e-4 2.318455874636003e-4 2.347618459504211e-4
      2.377147864532982e-4 2.407048703751933e-4 2.437325649228024e-4 2.467983431795584e-4
      2.499026841795515e-4 2.530460729823782e-4 2.562290007489349e-4 2.594519648181606e-4
      2.627154687847483e-4 2.660200225778323e-4 2.693661425406658e-4 2.727543515113013e-4
      2.761851789042834e-4 2.796591607933724e-4 2.831768399953063e-4 2.867387661546172e-4
      2.903454958295142e-4 2.939975925788474e-4 2.976956270501636e-4 3.014401770688729e-4
      3.052318277285337e-4 3.090711714822764e-4 3.129588082353734e-4 3.168953454389767e-4
      3.208813981850336e-4 3.249175893023948e-4 3.290045494541348e-4 3.331429172360920e-4
      3.373333392766517e-4 3.415764703377835e-4 3.458729734173480e-4 3.502235198526934e-4
      3.546287894255509e-4 3.590894704682541e-4 3.636062599712913e-4 3.681798636922111e-4
      3.728109962659013e-4 3.775003813162473e-4 3.822487515692048e-4 3.870568489672861e-4
      3.919254247854915e-4 3.968552397486988e-4 4.018470641505242e-4 4.069016779736879e-4
      4.120198710118828e-4 4.172024429931839e-4 4.224502037050085e-4 4.277639731206428e-4
      4.331445815273700e-4 4.385928696562005e-4 4.441096888132384e-4 4.496959010127025e-4
      4.553523791116124e-4 4.610800069461804e-4 4.668796794699084e-4 4.727523028934272e-4
      4.786987948260959e-4 4.847200844193758e-4 4.908171125120172e-4 4.969908317770638e-4
      5.032422068707108e-4 5.095722145830365e-4 5.159818439906225e-4 5.224720966111058e-4
      5.290439865596623e-4 5.356985407074668e-4 5.424367988421447e-4 5.492598138302371e-4
      5.561686517817187e-4 5.631643922165752e-4 5.702481282334817e-4 5.774209666806048e-4
      5.846840283285425e-4 5.920384480454560e-4 5.994853749743882e-4 6.070259727128223e-4
      6.146614194944975e-4 6.223929083735062e-4 6.302216474107169e-4 6.381488598625316e-4
      6.461757843720229e-4 6.543036751624785e-4 6.625338022333684e-4 6.708674515587932e-4
      6.793059252884142e-4 6.878505419509199e-4 6.965026366600497e-4 7.052635613232016e-4
      7.141346848526807e-4 7.231173933795865e-4 7.322130904704011e-4 7.414231973463020e-4
      7.507491531052240e-4 7.601924149467304e-4 7.697544583996960e-4 7.794367775528631e-4
      7.892408852883009e-4 7.991683135177867e-4 8.092206134221806e-4 8.193993556937942e-4
      8.297061307818153e-4 8.401425491408222e-4 8.507102414824143e-4 8.614108590300226e-4
      8.722460737769083e-4 8.832175787474188e-4 8.943270882615305e-4 9.055763382027044e-4
      9.169670862891323e-4 9.285011123483768e-4 9.401802185954754e-4 9.520062299145426e-4
      9.639809941439042e-4 9.761063823648360e-4 9.883842891939164e-4 1.000816633079066e-3
      1.013405356599312e-3 1.026152426768316e-3 1.039059835341726e-3 1.052129599128391e-3
      1.065363760305494e-3 1.078764386737645e-3 1.092333572299986e-3 1.106073437205370e-3
      1.119986128335641e-3 1.134073819577093e-3 1.148338712160146e-3 1.162783035003286e-3
      1.177409045061347e-3 1.192219027678156e-3 1.207215296943628e-3 1.222400196055346e-3
      1.237776097684690e-3 1.253345404347572e-3 1.269110548779835e-3 1.285073994317370e-3
      1.301238235281021e-3 1.317605797366324e-3 1.334179238038155e-3 1.350961146930339e-3
      1.367954146250281e-3 1.385160891188701e-3 1.402584070334499e-3 1.420226406094868e-3
      1.438090655120661e-3 1.456179608737136e-3 1.474496093380096e-3 1.493042971037531e-3
      1.511823139696812e-3 1.530839533797499e-3 1.550095124689857e-3 1.569592921099143e-3
      1.589335969595711e-3 1.609327355071058e-3 1.629570201219837e-3 1.650067671027941e-3
      1.670822967266734e-3 1.691839332993478e-3 1.713120052058076e-3 1.734668449616177e-3
      1.756487892648741e-3 1.778581790488134e-3 1.800953595350844e-3 1.823606802876896e-3
      1.846544952676055e-3 1.869771628880893e-3 1.893290460706825e-3 1.917105123019170e-3
      1.941219336907369e-3 1.965636870266401e-3 1.990361538385530e-3 2.015397204544456e-3
      2.040747780616948e-3 2.066417227682096e-3 2.092409556643227e-3 2.118728828854624e-3
      2.145379156756117e-3 2.172364704515661e-3 2.199689688679996e-3 2.227358378833491e-3
      2.255375098265273e-3 2.283744224644757e-3 2.312470190705654e-3 2.341557484938606e-3
      2.371010652292517e-3 2.400834294884706e-3 2.431033072720006e-3 2.461611704418894e-3
      2.492574967954786e-3 2.523927701400603e-3 2.555674803684735e-3 2.587821235356504e-3
      2.620372019361260e-3 2.653332241825230e-3 2.686707052850232e-3 2.720501667318390e-3
      2.754721365706968e-3 2.789371494913463e-3 2.824457469091060e-3 2.859984770494605e-3
      2.895958950337224e-3 2.932385629657705e-3 2.969270500198808e-3 3.006619325296594e-3
      3.044437940780973e-3 3.082732255887555e-3 3.121508254180985e-3 3.160771994489892e-3
      3.200529611853578e-3 3.240787318480644e-3 3.281551404719656e-3 3.322828240042019e-3
      3.364624274037240e-3 3.406946037420661e-3 3.449800143053913e-3 3.493193286978191e-3
      3.537132249460514e-3 3.581623896053168e-3 3.626675178666452e-3 3.672293136654930e-3
      3.718484897917349e-3 3.765257680010380e-3 3.812618791276392e-3 3.860575631985375e-3
      3.909135695491259e-3 3.958306569402759e-3 4.008095936768964e-3 4.058511577279828e-3
      4.109561368481746e-3 4.161253287008456e-3 4.213595409827398e-3 4.266595915501749e-3
      4.320263085468357e-3 4.374605305331714e-3 4.429631066174232e-3 4.485348965882993e-3
      4.541767710493184e-3 4.598896115548441e-3 4.656743107478279e-3 4.715317724992879e-3
      4.774629120495398e-3 4.834686561512047e-3 4.895499432140183e-3 4.957077234514562e-3
      5.019429590292088e-3 5.082566242155203e-3 5.146497055334213e-3 5.211232019148753e-3
      5.276781248568618e-3 5.343154985794268e-3 5.410363601857181e-3 5.478417598240349e-3
      5.547327608519176e-3 5.617104400022958e-3 5.687758875517332e-3 5.759302074907842e-3
      5.831745176964946e-3 5.905099501070723e-3 5.979376508987566e-3 6.054587806649074e-3
      6.130745145973528e-3 6.207860426700136e-3 6.285945698248402e-3 6.365013161600879e-3
      6.445075171209576e-3 6.526144236926383e-3 6.608233025957754e-3 6.691354364843978e-3
      6.775521241463380e-3 6.860746807061668e-3 6.947044378306856e-3 7.034427439370027e-3
      7.122909644032248e-3 7.212504817818024e-3 7.303226960155541e-3 7.395090246564116e-3
      7.488109030869140e-3 7.582297847444909e-3 7.677671413485654e-3 7.774244631305098e-3
      7.872032590665006e-3 7.971050571132983e-3 8.071314044469919e-3 8.172838677047528e-3
      8.275640332296192e-3 8.379735073183703e-3 8.485139164725098e-3 8.591869076524128e-3
      8.699941485346661e-3 8.809373277726451e-3 8.920181552603696e-3 9.032383623996781e-3
      9.145997023707640e-3 9.261039504061131e-3 9.377529040678867e-3 9.495483835287942e-3
      9.614922318564989e-3 9.735863153016012e-3 9.858325235892476e-3 9.982327702143966e-3
      1.010788992740812e-2 1.023503153103809e-2 1.036377237916811e-2 1.049413258781764e-2
      1.062613252603450e-2 1.075979281907758e-2 1.089513435163962e-2 1.103217827111041e-2
      1.117094599088122e-2 1.131145919369056e-2 1.145373983501226e-2 1.159781014648600e-2
      1.174369263939104e-2 1.189141010816373e-2 1.204098563395908e-2 1.219244258825731e-2
      1.234580463651568e-2 1.250109574186622e-2 1.265834016886012e-2 1.281756248725899e-2
      1.297878757587403e-2 1.314204062645335e-2 1.330734714761823e-2 1.347473296884895e-2
      1.364422424452061e-2 1.381584745798986e-2 1.398962942573299e-2 1.416559730153599e-2
      1.434377858073751e-2 1.452420110452491e-2 1.470689306428460e-2 1.489188300600700e-2
      1.507919983474685e-2 1.526887281913976e-2 1.546093159597542e-2 1.565540617482846e-2
      1.585232694274749e-2 1.605172466900312e-2 1.625363050989578e-2 1.645807601362389e-2
      1.666509312521334e-2 1.687471419150899e-2 1.708697196622893e-2 1.730189961508233e-2
      1.751953072095156e-2 1.773989928913971e-2 1.796303975268389e-2 1.818898697773550e-2
      1.841777626900818e-2 1.864944337529415e-2 1.888402449505009e-2 1.912155628205324e-2
      1.936207585112855e-2 1.960562078394805e-2 1.985222913490301e-2 2.010193943704995e-2
      2.035479070813166e-2 2.061082245667363e-2 2.087007468815752e-2 2.113258791127194e-2
      2.139840314424207e-2 2.166756192123888e-2 2.194010629886886e-2 2.221607886274556e-2
      2.249552273414352e-2 2.277848157673619e-2 2.306499960341840e-2 2.335512158321473e-2
      2.364889284827483e-2 2.394635930095651e-2 2.424756742099822e-2 2.455256427278151e-2
      2.486139751268499e-2 2.517411539653074e-2 2.549076678712435e-2 2.581140116188981e-2
      2.613606862060052e-2 2.646481989320741e-2 2.679770634776575e-2 2.713477999846128e-2
      2.747609351373770e-2 2.782170022452619e-2 2.817165413257843e-2 2.852600991890459e-2
      2.888482295231719e-2 2.924814929808272e-2 2.961604572668191e-2 2.998856972268016e-2
      3.036577949370983e-2 3.074773397956505e-2 3.113449286141134e-2 3.152611657111083e-2
      3.192266630066492e-2 3.232420401177568e-2 3.273079244552739e-2 3.314249513219002e-2
      3.355937640114599e-2 3.398150139094169e-2 3.440893605946566e-2 3.484174719425443e-2
      3.528000242292840e-2 3.572377022375867e-2 3.617311993636696e-2 3.662812177256011e-2
      3.708884682730071e-2 3.755536708981594e-2 3.802775545484593e-2 3.850608573403378e-2
      3.899043266745884e-2 3.948087193531485e-2 3.997748016973521e-2 4.048033496676689e-2
      4.098951489849499e-2 4.150509952531984e-2 4.202716940838828e-2 4.255580612218173e-2
      4.309109226726224e-2 4.363311148317896e-2 4.418194846153724e-2 4.473768895923150e-2
      4.530041981184517e-2 4.587022894721887e-2 4.644720539918923e-2 4.703143932150083e-2
      4.762302200189263e-2 4.822204587636200e-2 4.882860454360808e-2 4.944279277965663e-2
      5.006470655266916e-2 5.069444303793801e-2 5.133210063307017e-2 5.197777897336222e-2
      5.263157894736842e-2 5.329360271266498e-2 5.396395371181208e-2 5.464273668851714e-2
      5.533005770400131e-2 5.602602415357154e-2 5.673074478340166e-2 5.744432970752379e-2
      5.816689042503411e-2 5.889853983751481e-2 5.963939226667508e-2 6.038956347221434e-2
      6.114917066990966e-2 6.191833254993111e-2 6.269716929538731e-2 6.348580260110425e-2
      6.428435569264053e-2 6.509295334554133e-2 6.591172190483501e-2 6.674078930477476e-2
      6.758028508882850e-2 6.843034042992059e-2 6.929108815092748e-2 7.016266274543176e-2
      7.104520039873706e-2 7.193883900914717e-2 7.284371820951324e-2 7.375997938905126e-2
      7.468776571543463e-2 7.562722215716450e-2 7.657849550622111e-2 7.754173440100082e-2
      7.851708934954056e-2 7.950471275303545e-2 8.050475892965158e-2 8.151738413863859e-2
      8.254274660474575e-2 8.358100654294443e-2 8.463232618346231e-2 8.569686979713216e-2
      8.677480372105938e-2 8.786629638461280e-2 8.897151833574169e-2 9.009064226762449e-2
      9.122384304565244e-2 9.237129773475255e-2 9.353318562705466e-2 9.470968826990575e-2
      9.590098949423737e-2 9.710727544328952e-2 9.832873460169591e-2 9.956555782493528e-2
      1.008179383691524e-1 1.020860719213555e-1 1.033701566299920e-1 1.046703931359101e-1
      1.059869846037093e-1 1.073201367534850e-1 1.086700578929730e-1 1.100369589500978e-1
      1.114210535059303e-1 1.128225578280610e-1 1.142416909043917e-1 1.156786744773528e-1
      1.171337330785510e-1 1.186070940638531e-1 1.200989876489107e-1 1.216096469451318e-1
      1.231393079961048e-1 1.246882098144811e-1 1.262565944193209e-1 1.278447068739099e-1
      1.294527953240501e-1 1.310811110368333e-1 1.327299084399026e-1 1.343994451612067e-1
      1.360899820692551e-1 1.378017833138790e-1 1.395351163675057e-1 1.412902520669512e-1
      1.430674646557392e-1 1.448670318269530e-1 1.466892347666238e-1 1.485343581976684e-1
      1.504026904243772e-1 1.522945233774611e-1 1.542101526596687e-1 1.561498775919720e-1
      1.581140012603385e-1 1.601028305630877e-1 1.621166762588437e-1 1.641558530150945e-1
      1.662206794573563e-1 1.683114782189618e-1 1.704285759914717e-1 1.725723035757196e-1
      1.747429959335027e-1 1.769409922399174e-1 1.791666359363588e-1 1.814202747841830e-1
      1.837022609190443e-1 1.860129509059196e-1 1.883527057948200e-1 1.907218911772074e-1
      1.931208772431182e-1 1.955500388390055e-1 1.980097555263113e-1 2.005004116407717e-1
      2.030223963524723e-1 2.055761037266555e-1 2.081619327852935e-1 2.107802875694384e-1
      2.134315772023514e-1 2.161162159534322e-1 2.188346233029479e-1 2.215872240075768e-1
      2.243744481667801e-1 2.271967312900023e-1 2.300545143647240e-1 2.329482439253651e-1
      2.358783721230560e-1 2.388453567962899e-1 2.418496615424574e-1 2.448917557902878e-1
      2.479721148731971e-1 2.510912201035580e-1 2.542495588479097e-1 2.574476246031056e-1
      2.606859170734270e-1 2.639649422486612e-1 2.672852124831622e-1 2.706472465759100e-1
      2.740515698515711e-1 2.774987142425837e-1 2.809892183722726e-1 2.845236276390088e-1
      2.881024943014319e-1 2.917263775647381e-1 2.953958436680608e-1 2.991114659729446e-1
      3.028738250529332e-1 3.066835087842884e-1 3.105411124378430e-1 3.144472387720169e-1
      3.184024981269974e-1 3.224075085201045e-1 3.264628957423616e-1 3.305692934562719e-1
      3.347273432948331e-1 3.389376949617928e-1 3.432010063331638e-1 3.475179435600229e-1
      3.518891811725933e-1 3.563154021856460e-1 3.607972982052202e-1 3.653355695366860e-1
      3.699309252941737e-1 3.745840835113682e-1 3.792957712537087e-1 3.840667247319914e-1
      3.888976894174027e-1 3.937894201580045e-1 3.987426812966762e-1 4.037582467905488e-1
      4.088369003319356e-1 4.139794354707838e-1 4.191866557386726e-1 4.244593747743618e-1
      4.297984164509288e-1 4.352046150044987e-1 4.406788151645929e-1 4.462218722861254e-1
      4.518346524830472e-1 4.575180327636843e-1 4.632729011677691e-1 4.691001569051966e-1
      4.750007104965332e-1 4.809754839152804e-1 4.870254107319416e-1 4.931514362598914e-1
      4.993545177030803e-1 5.056356243056058e-1 5.119957375031520e-1 5.184358510763464e-1
      5.249569713060382e-1 5.315601171305291e-1 5.382463203047900e-1 5.450166255616682e-1
      5.518720907751353e-1 5.588137871255795e-1 5.658427992671765e-1 5.729602254973763e-1
      5.801671779285055e-1 5.874647826615455e-1 5.948541799620837e-1 6.023365244384800e-1
      6.099129852222843e-1 6.175847461509059e-1 6.253530059525998e-1 6.332189784337652e-1
      6.411838926686038e-1 6.492489931911719e-1 6.574155401898323e-1 6.656848097041696e-1
      6.740580938243706e-1 6.825367008931122e-1 6.911219557100016e-1 6.998151997385678e-1
      7.086177913158794e-1 7.175311058647771e-1 7.265565361087944e-1 7.356954922897709e-1
      7.449494023882004e-1 7.543197123463657e-1 7.638078862942592e-1 7.734154067783653e-1
      7.831437749933079e-1 7.929945110164102e-1 8.029691540452200e-1 8.130692626380014e-1
      8.232964149572721e-1 8.336522090163911e-1 8.441382629292461e-1 8.547562151630977e-1
      8.655077247945822e-1 8.763944717689549e-1 8.874181571625815e-1 8.985805034487296e-1
      9.098832547667191e-1 9.213281771944363e-1 9.329170590242970e-1 9.446517110426662e-1
      9.565339668127930e-1 9.685656829613196e-1 9.807487394683692e-1 9.930850399613098e-1
      1.005576512012193e0 1.018225107438938e0 1.031032802610317e0 1.044001598754754e0
      1.057133522273035e0 1.070430625054928e0 1.083894984799791e0 1.097528705341233e0
      1.111333916975823e0 1.125312776795965e0 1.139467469026951e0 1.153800205368235e0
      1.168313225339035e0 1.183008796628243e0 1.197889215448775e0 1.212956806896347e0
      1.228213925312775e0 1.243662954653855e0 1.259306308861850e0 1.275146432242683e0
      1.291185799847862e0 1.307426917861203e0 1.323872323990442e0 1.340524587863742e0
      1.357386311431214e0 1.374460129371473e0 1.391748709503305e0 1.409254753202535e0
      1.426980995824100e0 1.444930207129479e0 1.463105191719458e0 1.481508789472350e0
      1.500143875987754e0 1.519013363035844e0 1.538120199012365e0 1.557467369399315e0
      1.577057897231422e0 1.596894843568524e0 1.616981307973839e0 1.637320428998298e0
      1.657915384670946e0 1.678769392995500e0 1.699885712453196e0 1.721267642511904e0
      1.742918524141701e0 1.764841740336893e0 1.787040716644608e0 1.809518921700065e0
      1.832279867768529e0 1.855327111294134e0 1.878664253455574e0 1.902294940728786e0
      1.926222865456739e0 1.950451766426347e0 1.974985429452684e0 1.999827687970516e0
      2.024982423633270e0 2.050453566919580e0 2.076245097747397e0 2.102361046095891e0
      2.128805492635128e0 2.155582569363674e0 2.182696460254253e0 2.210151401907474e0
      2.237951684213831e0 2.266101651023998e0 2.294605700827553e0 2.323468287440278e0
      2.352693920700045e0 2.382287167171514e0 2.412252650859659e0 2.442595053932262e0
      2.473319117451545e0 2.504429642114932e0 2.535931489005201e0 2.567829580350024e0
      2.600128900291062e0 2.632834495662780e0 2.665951476780982e0 2.699485018241353e0
      2.733440359727973e0 2.767822806832024e0 2.802637731880826e0 2.837890574777240e0
      2.873586843849697e0 2.909732116712868e0 2.946332041139166e0 2.983392335941256e0
      3.020918791865591e0 3.058917272497263e0 3.097393715176182e0 3.136354131924789e0
      3.175804610387477e0 3.215751314781757e0 3.256200486861468e0 3.297158446892048e0
      3.338631594638071e0 3.380626410363261e0 3.423149455843001e0 3.466207375389668e0
      3.509806896890800e0 3.553954832860324e0 3.598658081503064e0 3.643923627792560e0
      3.689758544562519e0 3.736169993611944e0 3.783165226824162e0 3.830751587299987e0
      3.878936510505044e0 3.927727525431627e0 3.977132255775088e0 4.027158421125047e0
      4.077813838171630e0 4.129106421926798e0 4.181044186961123e0 4.233635248656069e0
      4.286887824472007e0 4.340810235232269e0 4.395410906423225e0 4.450698369510842e0
      4.506681263273719e0 4.563368335152890e0 4.620768442618680e0 4.678890554554648e0
      4.737743752659043e0 4.797337232863813e0 4.857680306771468e0 4.918782403110092e0
      4.980653069206534e0 5.043301972478257e0 5.106738901943865e0 5.170973769752635e0
      5.236016612733366e0 5.301877593962585e0 5.368567004352616e0 5.436095264259518e0
      5.504472925111275e0 5.573710671056528e0 5.643819320633924e0 5.714809828462610e0
      5.786693286953875e0 5.859480928044334e0 5.933184124951017e0 6.007814393948371e0
      6.083383396167772e0 6.159902939419574e0 6.237384980038070e0 6.315841624749766e0
      6.395285132564998e0 6.475727916693502e0 6.557182546483971e0 6.639661749388009e0
      6.723178412948896e0 6.807745586815209e0 6.893376484779926e0 6.980084486845088e0
      7.067883141312396e0 7.156786166900269e0 7.246807454887301e0 7.337961071282903e0
      7.430261259025105e0 7.523722440206001e0 7.618359218325323e0 7.714186380572167e0
      7.811218900135611e0 7.909471938544263e0 8.008960848035244e0 8.109701173953100e0
      8.211708657178690e0 8.314999236588813e0 8.419589051546668e0 8.525494444423597e0
      8.632731963152736e0 8.741318363814532e0 8.851270613255023e0 8.962605891736903e0
      9.075341595623913e0 9.189495340099182e0 9.305084961917498e0 9.422128522192457e0
      9.540644309218493e0 9.660650841328421e0 9.782166869787069e0 9.905211381721079e0
      1.002980360308579e1 1.015596300166929e1 1.028370929013426e1 1.041306242909820e1
      1.054404263025220e1 1.067667035951920e1 1.081096634025176e1 1.094695155647003e1
      1.108464725614078e1 1.122407495449716e1 1.136525643740074e1 1.150821376474548e1
      1.165296927390459e1 1.179954558322091e1 1.194796559554095e1 1.209825250179362e1
      1.225042978461381e1 1.240452122201151e1 1.256055089108736e1 1.271854317179457e1
      1.287852275074844e1 1.304051462508370e1 1.320454410636024e1 1.337063682451828e1
      1.353881873188289e1 1.370911610721931e1 1.388155555983891e1 1.405616403375696e1
      1.423296881190279e1 1.441199752038266e1 1.459327813279653e1 1.477683897460892e1
      1.496270872757479e1 1.515091643422123e1 1.534149150238527e1 1.553446370980907e1
      1.572986320879266e1 1.592772053090526e1 1.612806659175603e1 1.633093269582455e1
      1.653635054135233e1 1.674435222529569e1 1.695497024834087e1 1.716823751998255e1
      1.738418736366573e1 1.760285352199290e1 1.782427016199619e1 1.804847188047602e1
      1.827549370940711e1 1.850537112141204e1 1.873814003530416e1 1.897383682169988e1
      1.921249830870152e1 1.945416178765207e1 1.969886501896170e1 1.994664623800819e1
      2.019754416111117e1 2.045159799158152e1 2.070884742584718e1 2.096933265965558e1
      2.123309439435448e1 2.150017384325161e1 2.177061273805415e1 2.204445333538970e1
      2.232173842340866e1 2.260251132847021e1 2.288681592191204e1 2.317469662690521e1
      2.346619842539566e1 2.376136686513239e1 2.406024806678468e1 2.436288873114840e1
      2.466933614644300e1 2.497963819570068e1 2.529384336424787e1 2.561200074728143e1
      2.593416005753983e1 2.626037163307064e1 2.659068644509629e1 2.692515610597812e1
      2.726383287728116e1 2.760676967794002e1 2.795402009252743e1 2.830563837962723e1
      2.866167948031208e1 2.902219902672836e1 2.938725335078874e1 2.975689949297396e1
      3.013119521124589e1 3.051019899007192e1 3.089397004956362e1 3.128256835472991e1
      3.167605462484643e1 3.207449034294358e1 3.247793776541283e1 3.288645993173478e1
      3.330012067432917e1 3.371898462852847e1 3.414311724267784e1 3.457258478836104e1
      3.500745437075589e1 3.544779393911945e1 3.589367229740503e1 3.634515911501339e1
      3.680232493767820e1 3.726524119848944e1 3.773398022905473e1 3.820861527080113e1
      3.868922048641968e1 3.917587097145300e1 3.966864276602955e1 4.016761286674483e1
      4.067285923869211e1 4.118446082764509e1 4.170249757239274e1 4.222705041723048e1
      4.275820132460757e1 4.329603328793382e1 4.384063034454783e1 4.439207758884756e1
      4.495046118558693e1 4.551586838333904e1 4.608838752812874e1 4.666810807723733e1
      4.725512061317992e1 4.784951685785959e1 4.845138968689900e1 4.906083314415202e1
      4.967794245639894e1 5.030281404822514e1 5.093554555708824e1 5.157623584857391e1
      5.222498503184349e1 5.288189447527694e1 5.354706682231112e1 5.422060600747862e1
      5.490261727264759e1 5.559320718346553e1 5.629248364601128e1 5.700055592365453e1
      5.771753465412940e1 5.844353186682132e1 5.917866100027162e1 5.992303691990323e1
      6.067677593596782e1 6.143999582172029e1 6.221281583182063e1 6.299535672096756e1
      6.378774076276729e1 6.459009176883825e1 6.540253510815768e1 6.622519772665036e1
      6.705820816702389e1 6.790169658885465e1 6.875579478892437e1 6.962063622181461e1
      7.049635602075892e1 7.138309101875729e1 7.228097976995750e1 7.319016257130342e1
      7.411078148445767e1 7.504298035799855e1 7.598690484989634e1 7.694270245027365e1
      7.791052250444982e1 7.889051623627748e1 7.988283677177122e1 8.088763916303328e1
      8.190508041248190e1 8.293531949738201e1 8.397851739468679e1 8.503483710619028e1
      8.610444368399618e1 8.718750425630869e1 8.828418805354545e1 8.939466643478118e1
      9.051911291452233e1 9.165770318981879e1 9.281061516771787e1 9.397802899306141e1
      9.516012707663490e1 9.635709412366907e1 9.756911716269993e1 9.879638557479353e1
      1.000390911231358e2
      </PP_R>
    <PP_RAB>
      5.999223457595502e-7 6.074684399138304e-7 6.151094522477515e-7 6.228465766850356e-7
      6.306810221671183e-7 6.386140128420453e-7 6.466467882557492e-7 6.547806035457313e-7
      6.630167296371780e-7 6.713564534415493e-7 6.798010780576559e-7 6.883519229752755e-7
      6.970103242813225e-7 7.057776348686163e-7 7.146552246472750e-7 7.236444807587620e-7
      7.327468077926338e-7 7.419636280060082e-7 7.512963815457942e-7 7.607465266737222e-7
      7.703155399941935e-7 7.800049166850087e-7 7.898161707309872e-7 7.997508351605359e-7
      8.098104622851848e-7 8.199966239421377e-7 8.303109117398781e-7 8.407549373068582e-7
      8.513303325433210e-7 8.620387498762895e-7 8.728818625177576e-7 8.838613647261361e-7
      8.949789720709827e-7 9.062364217010638e-7 9.176354726157887e-7 9.291779059400540e-7
      9.408655252025488e-7 9.527001566175629e-7 9.646836493703310e-7 9.768178759059783e-7
      9.891047322220871e-7 1.001546138164955e-6 1.014144037729573e-6 1.026900399363377e-6
      1.039817216273827e-6 1.052896506739845e-6 1.066140314427175e-6 1.079550708707715e-6
      1.093129784982851e-6 1.106879665010883e-6 1.120802497238536e-6 1.134900457136673e-6
      1.149175747540211e-6 1.163630598992316e-6 1.178267270092941e-6 1.193088047851721e-6
      1.208095248045334e-6 1.223291215579343e-6 1.238678324854590e-6 1.254258980138208e-6
      1.270035615939282e-6 1.286010697389255e-6 1.302186720627103e-6 1.318566213189368e-6