<?xml version="1.0" encoding="UTF-8"?>
<UPF version="2.0.1">
  <PP_INFO><![CDATA[
Generated using "atomic" code by A. Dal Corso  v.6.3MaX
Author: ADC
Generation date: 27May2022
Pseudopotential type: PAW
Element: Hf
Functional:  SLA  PW   PBX  PBC
    Suggested minimum cutoff for wavefunctions:  46. Ry
    Suggested minimum cutoff for charge density: 316. Ry
    The Pseudo was generated with a Scalar-Relativistic Calculation
    Local Potential by smoothing AE potential with Bessel fncs, cutoff radius:   1.5000
    Pseudopotential contains additional information for GIPAW reconstruction.
    Valence configuration:
    nl pn  l   occ       Rcut    Rcut US       E pseu
    5S  1  0  2.00      1.000      1.300    -4.925511
    6S  2  0  2.00      1.000      1.300    -0.375431
    5P  2  1  6.00      1.100      1.300    -2.614584
    5D  3  2  2.00      1.500      1.800    -0.197601
    4F  4  3 14.00      1.300      2.000    -1.237232
    Generation configuration:
    5S  1  0  2.00      1.000      1.300    -4.925552
    6S  2  0  2.00      1.000      1.300    -0.375442
    5P  2  1  6.00      1.100      1.300    -2.614604
    6P  3  1  0.00      1.100      1.300    -2.200000
    5D  3  2  2.00      1.500      1.800    -0.197614
    5D  3  2  0.00      1.500      1.800     0.050000
    4F  4  3 14.00      1.300      2.000    -1.237327
    4F  4  3  0.00      1.300      2.000     1.000000
    Pseudization used: troullier-martins
]]>
    <PP_INPUTFILE><![CDATA[
 &input
   title='Hf',
   zed=72.,
   rel=1,
   config='[Xe] 4f14 6s2 6p0 5d2',
   iswitch=3,
   dft='PBE'
 /
 &inputp
   lpaw=.true.,
   pseudotype=3,
   file_pseudopw='Hf.pbe-spfn-kjpaw_psl.1.0.0.UPF',
   author='ADC',
   lloc=-1,
   rcloc=1.5,
   which_augfun='PSQ',
   rmatch_augfun_nc=.true.,
   nlcc=.true.,
   new_core_ps=.true.,
   rcore=0.7,
   tm=.true.
 /
8
5S  1  0  2.00  0.00  1.00  1.30  0.0
6S  2  0  2.00  0.00  1.00  1.30  0.0
5P  2  1  6.00  0.00  1.10  1.30  0.0
6P  3  1  0.00 -2.20  1.10  1.30  0.0
5D  3  2  2.00  0.00  1.50  1.80  0.0
5D  3  2  0.00  0.05  1.50  1.80  0.0
4F  4  3 14.00  0.00  1.30  2.00  0.0
4F  4  3  0.00  1.00  1.30  2.00  0.0
]]></PP_INPUTFILE>
  </PP_INFO>
  <!--
 END OF HUMAN READABLE SECTION 
-->
  <PP_HEADER generated="Generated using &quot;atomic&quot; code by A. Dal Corso  v.6.3MaX" author="ADC" date="27May2022" comment="" element="Hf" pseudo_type="PAW" relativistic="scalar" is_ultrasoft="true" is_paw="true" is_coulomb="false" has_so="false" has_wfc="true" has_gipaw="true" paw_as_gipaw="true" core_correction="true" functional=" SLA  PW   PBX  PBC" z_valence="2.600000000000e1" total_psenergy="-1.152162643457e3" wfc_cutoff="4.557765349528e1" rho_cutoff="3.156240930343e2" l_max="3" l_max_rho="6" l_local="-1" mesh_size="1271" number_of_wfc="5" number_of_proj="8"/>
  <PP_MESH dx="1.250000000000e-2" mesh="1271" xmin="-7.000000000000e0" rmax="1.000000000000e2" zmesh="7.200000000000e1">
    <PP_R>
      1.266502729936828e-5 1.282433373151420e-5 1.298564399189698e-5 1.314898328557297e-5
      1.331437713463916e-5 1.348185138222096e-5 1.365143219651026e-5 1.382314607485432e-5
      1.399701984789598e-5 1.417308068376604e-5 1.435135609232829e-5 1.453187392947803e-5
      1.471466240149458e-5 1.489975006944857e-5 1.508716585366470e-5 1.527693903824053e-5
      1.546909927562227e-5 1.566367659123795e-5 1.586070138818900e-5 1.606020445200080e-5
      1.626221695543298e-5 1.646677046335018e-5 1.667389693765418e-5 1.688362874227798e-5
      1.709599864824279e-5 1.731103983877846e-5 1.752878591450853e-5 1.774927089870034e-5
      1.797252924258122e-5 1.819859583072167e-5 1.842750598648599e-5 1.865929547755176e-5
      1.889400052149853e-5 1.913165779146690e-5 1.937230442188888e-5 1.961597801429002e-5
      1.986271664316492e-5 2.011255886192633e-5 2.036554370892921e-5 2.062171071357065e-5
      2.088109990246628e-5 2.114375180570460e-5 2.140970746317986e-5 2.167900843100461e-5
      2.195169678800301e-5 2.222781514228562e-5 2.250740663790704e-5 2.279051496160731e-5
      2.307718434963797e-5 2.336745959467418e-5 2.366138605281352e-5 2.395900965066309e-5
      2.426037689251555e-5 2.456553486761556e-5 2.487453125751764e-5 2.518741434353633e-5
      2.550423301429038e-5 2.582503677334168e-5 2.614987574693024e-5 2.647880069180661e-5
      2.681186300316263e-5 2.714911472266204e-5 2.749060854657218e-5 2.783639783399777e-5
      2.818653661521853e-5 2.854107960013137e-5 2.890008218679902e-5 2.926360047010603e-5
      2.963169125052372e-5 3.000441204298548e-5 3.038182108587341e-5 3.076397735011829e-5
      3.115094054841394e-5 3.154277114454731e-5 3.193953036284634e-5 3.234128019774602e-5
      3.274808342347546e-5 3.316000360386630e-5 3.357710510228478e-5 3.399945309168865e-5
      3.442711356481054e-5 3.486015334446942e-5 3.529864009401193e-5 3.574264232788471e-5
      3.619222942234025e-5 3.664747162627669e-5 3.710844007221459e-5 3.757520678741147e-5
      3.804784470511623e-5 3.852642767596512e-5 3.901103047952101e-5 3.950172883595788e-5
      3.999859941789227e-5 4.050171986236345e-5 4.101116878296453e-5 4.152702578212583e-5
      4.204937146355298e-5 4.257828744482143e-5 4.311385637012929e-5 4.365616192321084e-5
      4.420528884041204e-5 4.476132292393093e-5 4.532435105522429e-5 4.589446120858308e-5
      4.647174246487877e-5 4.705628502548210e-5 4.764818022635743e-5 4.824752055233408e-5
      4.885439965155735e-5 4.946891235012124e-5 5.009115466688515e-5 5.072122382847699e-5
      5.135921828448517e-5 5.200523772284139e-5 5.265938308539733e-5 5.332175658369671e-5
      5.399246171494624e-5 5.467160327818727e-5 5.535928739067070e-5 5.605562150443832e-5
      5.676071442311203e-5 5.747467631889496e-5 5.819761874978582e-5 5.892965467701028e-5
      5.967089848267139e-5 6.042146598762179e-5 6.118147446956119e-5 6.195104268136113e-5
      6.273029086962035e-5 6.351934079345378e-5 6.431831574351730e-5 6.512734056127238e-5
      6.594654165849273e-5 6.677604703701646e-5 6.761598630874671e-5 6.846649071590351e-5
      6.932769315153080e-5 7.019972818026131e-5 7.108273205934239e-5 7.197684275992675e-5
      7.288219998863034e-5 7.379894520936215e-5 7.472722166542805e-5 7.566717440191285e-5
      7.661895028834404e-5 7.758269804164026e-5 7.855856824934873e-5 7.954671339317478e-5
      8.054728787280752e-5 8.156044803004516e-5 8.258635217322354e-5 8.362516060195222e-5
      8.467703563216162e-5 8.574214162146529e-5 8.682064499484113e-5 8.791271427063538e-5
      8.901852008689421e-5 9.013823522802621e-5 9.127203465180019e-5 9.242009551668296e-5
      9.358259720952040e-5 9.475972137356706e-5 9.595165193686849e-5 9.715857514100016e-5
      9.838067957016840e-5 9.961815618067638e-5 1.008711983307624e-4 1.021400018108116e-4
      1.034247648739491e-4 1.047256882670177e-4 1.060429752619439e-4 1.073768316875010e-4
      1.087274659614691e-4 1.100950891232013e-4 1.114799148665994e-4 1.128821595735029e-4
      1.143020423475004e-4 1.157397850481640e-4 1.171956123257157e-4 1.186697516561298e-4
      1.201624333766755e-4 1.216738907219087e-4 1.232043598601147e-4 1.247540799302099e-4
      1.263232930791086e-4 1.279122444995575e-4 1.295211824684490e-4 1.311503583856141e-4
      1.328000268131042e-4 1.344704455149679e-4 1.361618754975254e-4 1.378745810501529e-4
      1.396088297865776e-4 1.413648926866926e-4 1.431430441388993e-4 1.449435619829792e-4
      1.467667275535091e-4 1.486128257238184e-4 1.504821449505021e-4 1.523749773184929e-4
      1.542916185866987e-4 1.562323682342176e-4 1.581975295071302e-4 1.601874094658836e-4
      1.622023190332702e-4 1.642425730430086e-4 1.663084902889392e-4 1.684003935748347e-4
      1.705186097648394e-4 1.726634698345429e-4 1.748353089226944e-4 1.770344663835704e-4
      1.792612858399982e-4 1.815161152370484e-4 1.837993068964019e-4 1.861112175714004e-4
      1.884522085027908e-4 1.908226454751686e-4 1.932228988741336e-4 1.956533437441630e-4
      1.981143598472119e-4 2.006063317220538e-4 2.031296487443642e-4 2.056847051875611e-4
      2.082719002844128e-4 2.108916382894159e-4 2.135443285419644e-4 2.162303855303068e-4
      2.189502289563123e-4 2.217042838010503e-4 2.244929803911927e-4 2.273167544662559e-4
      2.301760472466841e-4 2.330713055027911e-4 2.360029816245706e-4 2.389715336923803e-4
      2.419774255485210e-4 2.450211268697106e-4 2.481031132404727e-4 2.512238662274488e-4
      2.543838734546414e-4 2.575836286796095e-4 2.608236318706169e-4 2.641043892847535e-4
      2.674264135470406e-4 2.707902237305277e-4 2.741963454373997e-4 2.776453108811032e-4
      2.811376589695054e-4 2.846739353891008e-4 2.882546926902742e-4 2.918804903736394e-4
      2.955518949774607e-4 2.992694801661774e-4 3.030338268200385e-4 3.068455231258673e-4
      3.107051646689667e-4 3.146133545261802e-4 3.185707033601241e-4 3.225778295146053e-4
      3.266353591112376e-4 3.307439261472761e-4 3.349041725946788e-4 3.391167485004172e-4
      3.433823120880472e-4 3.477015298605576e-4 3.520750767045131e-4 3.565036359955060e-4
      3.609878997049354e-4 3.655285685081294e-4 3.701263518938263e-4 3.747819682750345e-4
      3.794961451012857e-4 3.842696189722997e-4 3.891031357530808e-4 3.939974506904597e-4
      3.989533285311031e-4 4.039715436410066e-4 4.090528801264901e-4 4.141981319567182e-4
      4.194081030877570e-4 4.246836075881958e-4 4.300254697663457e-4 4.354345242990401e-4
      4.409116163620549e-4 4.464576017621677e-4 4.520733470708810e-4 4.577597297598246e-4
      4.635176383378622e-4 4.693479724899245e-4 4.752516432175838e-4 4.812295729814031e-4
      4.872826958450700e-4 4.934119576213467e-4 4.996183160198565e-4 5.059027407967255e-4
      5.122662139061114e-4 5.187097296536336e-4 5.252342948517372e-4 5.318409289770091e-4
      5.385306643294722e-4 5.453045461938864e-4 5.521636330030740e-4 5.591089965033035e-4
      5.661417219217531e-4 5.732629081360770e-4 5.804736678461099e-4 5.877751277477266e-4
      5.951684287088915e-4 6.026547259479219e-4 6.102351892139919e-4 6.179110029699100e-4
      6.256833665771920e-4 6.335534944834640e-4 6.415226164122240e-4 6.495919775549859e-4
      6.577628387658462e-4 6.660364767584927e-4 6.744141843056940e-4 6.828972704412997e-4
      6.914870606647771e-4 7.001848971483247e-4 7.089921389465891e-4 7.179101622090196e-4
      7.269403603948942e-4 7.360841444910529e-4 7.453429432323631e-4 7.547182033249651e-4
      7.642113896723231e-4 7.738239856041165e-4 7.835574931080189e-4 7.934134330643792e-4
      8.033933454838680e-4 8.134987897481050e-4 8.237313448533158e-4 8.340926096570549e-4
      8.445842031280273e-4 8.552077645990588e-4 8.659649540232426e-4 8.768574522333108e-4
      8.878869612042719e-4 8.990552043193409e-4 9.103639266392273e-4 9.218148951748006e-4
      9.334098991631912e-4 9.451507503473639e-4 9.570392832592026e-4 9.690773555061620e-4
      9.812668480615226e-4 9.936096655582947e-4 1.006107736586826e-3 1.018763013996141e-3
      1.031577475199082e-3 1.044553122481284e-3 1.057691983314032e-3 1.070996110671065e-3
      1.084467583349349e-3 1.098108506293899e-3 1.111921010926675e-3 1.125907255479628e-3
      1.140069425331928e-3 1.154409733351424e-3 1.168930420240422e-3 1.183633754885790e-3
      1.198522034713479e-3 1.213597586047505e-3 1.228862764473435e-3 1.244319955206454e-3
      1.259971573464063e-3 1.275820064843457e-3 1.291867905703660e-3 1.308117603552454e-3
      1.324571697438190e-3 1.341232758346512e-3 1.358103389602084e-3 1.375186227275365e-3
      1.392483940594496e-3 1.409999232362376e-3 1.427734839378978e-3 1.445693532868981e-3
      1.463878118914782e-3 1.482291438894947e-3 1.500936369928185e-3 1.519815825322903e-3
      1.538932755032416e-3 1.558290146115885e-3 1.577891023205052e-3 1.597738448976839e-3
      1.617835524631903e-3 1.638185390379202e-3 1.658791225926661e-3 1.679656250978010e-3
      1.700783725735860e-3 1.722176951411129e-3 1.743839270738852e-3 1.765774068500494e-3
      1.787984772052837e-3 1.810474851863496e-3 1.833247822053199e-3 1.856307240944868e-3
      1.879656711619621e-3 1.903299882479756e-3 1.927240447818823e-3 1.951482148398864e-3
      1.976028772034912e-3 2.000884154186851e-3 2.026052178558714e-3 2.051536777705512e-3
      2.077341933647710e-3 2.103471678493426e-3 2.129930095068451e-3 2.156721317554208e-3
      2.183849532133717e-3 2.211318977645699e-3 2.239133946246901e-3 2.267298784082756e-3
      2.295817891966480e-3 2.324695726066702e-3 2.353936798603753e-3 2.383545678554706e-3
      2.413526992367293e-3 2.443885424682799e-3 2.474625719068035e-3 2.505752678756540e-3
      2.537271167399094e-3 2.569186109823670e-3 2.601502492804959e-3 2.634225365843546e-3
      2.667359841954920e-3 2.700911098468384e-3 2.734884377836028e-3 2.769284988451878e-3
      2.804118305481325e-3 2.839389771701029e-3 2.875104898349345e-3 2.911269265987469e-3
      2.947888525371432e-3 2.984968398335009e-3 3.022514678683792e-3 3.060533233100472e-3
      3.099030002061525e-3 3.138011000765429e-3 3.177482320072534e-3 3.217450127456790e-3
      3.257920667969414e-3 3.298900265214697e-3 3.340395322338086e-3 3.382412323026678e-3
      3.424957832522313e-3 3.468038498647413e-3 3.511661052843701e-3 3.555832311224028e-3
      3.600559175637383e-3 3.645848634747325e-3 3.691707765123983e-3 3.738143732349775e-3
      3.785163792139064e-3 3.832775291471851e-3 3.880985669741770e-3 3.929802459918514e-3
      3.979233289724862e-3 4.029285882828547e-3 4.079968060049069e-3 4.131287740579732e-3
      4.183252943225032e-3 4.235871787653601e-3 4.289152495666943e-3 4.343103392484082e-3
      4.397732908042408e-3 4.453049578314872e-3 4.509062046643747e-3 4.565779065091169e-3
      4.623209495806663e-3 4.681362312411868e-3 4.740246601402694e-3 4.799871563569091e-3
      4.860246515432714e-3 4.921380890702622e-3 4.983284241749330e-3 5.045966241097382e-3
      5.109436682936699e-3 5.173705484652959e-3 5.238782688377182e-3 5.304678462554849e-3
      5.371403103534743e-3 5.438967037177765e-3 5.507380820486013e-3 5.576655143252315e-3
      5.646800829730546e-3 5.717828840326927e-3 5.789750273312616e-3 5.862576366557855e-3
      5.936318499287872e-3 6.010988193860937e-3 6.086597117568743e-3 6.163157084459443e-3
      6.240680057183635e-3 6.319178148863525e-3 6.398663624985640e-3 6.479148905317342e-3
      6.560646565847427e-3 6.643169340751170e-3 6.726730124380037e-3 6.811341973276477e-3
      6.897018108214025e-3 6.983771916263068e-3 7.071616952882628e-3 7.160566944038393e-3
      7.250635788347449e-3 7.341837559249969e-3 7.434186507208198e-3 7.527697061933156e-3
      7.622383834639258e-3 7.718261620327384e-3 7.815345400096612e-3 7.913650343485042e-3
      8.013191810840093e-3 8.113985355718556e-3 8.216046727316881e-3 8.319391872932025e-3
      8.424036940453242e-3 8.529998280885248e-3 8.637292450903061e-3 8.745936215439032e-3
      8.855946550302413e-3 8.967340644831834e-3 9.080135904581212e-3 9.194349954039364e-3
      9.310000639383885e-3 9.427106031269650e-3 9.545684427652391e-3 9.665754356647806e-3
      9.787334579426577e-3 9.910444093145873e-3 1.003510213391767e-2 1.016132817981447e-2
      1.028914195391275e-2 1.041856342737475e-2 1.054961282256901e-2 1.068231061623015e-2
      1.081667754265840e-2 1.095273459695940e-2 1.109050303832469e-2 1.123000439335351e-2
      1.137126045941642e-2 1.151429330806112e-2 1.165912528846121e-2 1.180577903090831e-2
      1.195427745034803e-2 1.210464374996054e-2 1.225690142478605e-2 1.241107426539605e-2
      1.256718636161055e-2 1.272526210626220e-2 1.288532619900769e-2 1.304740365018716e-2
      1.321151978473214e-2 1.337770024612253e-2 1.354597100039352e-2 1.371635834019281e-2
      1.388888888888889e-2 1.406358960473104e-2 1.424048778506152e-2 1.441961107058091e-2
      1.460098744966701e-2 1.478464526274805e-2 1.497061320673100e-2 1.515892033948544e-2
      1.534959608438400e-2 1.554267023489974e-2 1.573817295926148e-2 1.593613480516767e-2
      1.613658670455949e-2 1.633955997845404e-2 1.654508634183832e-2 1.675319790862473e-2
      1.696392719666903e-2 1.717730713285118e-2 1.739337105822035e-2 1.761215273320445e-2
      1.783368634288530e-2 1.805800650234016e-2 1.828514826205030e-2 1.851514711337783e-2
      1.874803899411117e-2 1.898386029408050e-2 1.922264786084377e-2 1.946443900544408e-2
      1.970927150823969e-2 1.995718362480730e-2 2.020821409191946e-2 2.046240213359744e-2
      2.071978746723987e-2 2.098041030982880e-2 2.124431138421361e-2 2.151153192547407e-2
      2.178211368736346e-2 2.205609894883255e-2 2.233353052063589e-2 2.261445175202099e-2
      2.289890653750178e-2 2.318693932371727e-2 2.347859511637628e-2 2.377391948728980e-2
      2.407295858149161e-2 2.437575912444859e-2 2.468236842936165e-2 2.499283440455846e-2
      2.530720556097931e-2 2.562553101975696e-2 2.594786051989197e-2 2.627424442602458e-2
      2.660473373630412e-2 2.693938009035771e-2 2.727823577735901e-2 2.762135374419850e-2
      2.796878760375663e-2 2.832059164328077e-2 2.867682083286788e-2 2.903753083405357e-2
      2.940277800850937e-2 2.977261942684944e-2 3.014711287754782e-2 3.052631687596810e-2
      3.091029067350652e-2 3.129909426685012e-2 3.169278840735145e-2 3.209143461052090e-2
      3.249509516563878e-2 3.290383314548808e-2 3.331771241620970e-2 3.373679764728179e-2
      3.416115432162432e-2 3.459084874583100e-2 3.502594806052986e-2 3.546652025087398e-2
      3.591263415716454e-2 3.636435948560697e-2 3.682176681920288e-2 3.728492762877878e-2
      3.775391428415340e-2 3.822880006544593e-2 3.870965917452571e-2 3.919656674660694e-2
      3.968959886198841e-2 4.018883255794112e-2 4.069434584074591e-2 4.120621769788151e-2
      4.172452811036711e-2 4.224935806525925e-2 4.278078956830599e-2 4.331890565676105e-2
      4.386379041235791e-2 4.441552897444826e-2 4.497420755330505e-2 4.553991344359268e-2
      4.611273503800765e-2 4.669276184108931e-2 4.728008448320581e-2 4.787479473471496e-2
      4.847698552030336e-2 4.908675093350658e-2 4.970418625141084e-2 5.032938794954084e-2
      5.096245371693398e-2 5.160348247140422e-2 5.225257437499882e-2 5.290983084964809e-2
      5.357535459301353e-2 5.424924959453410e-2 5.493162115167469e-2 5.562257588637957e-2
      5.632222176173162e-2 5.703066809882237e-2 5.774802559383349e-2 5.847440633533277e-2
      5.920992382178920e-2 5.995469297930618e-2 6.070883017957995e-2 6.147245325808247e-2
      6.224568153247311e-2 6.302863582124316e-2 6.382143846259291e-2 6.462421333354817e-2
      6.543708586931590e-2 6.626018308288337e-2 6.709363358486504e-2 6.793756760359732e-2
      6.879211700548769e-2 6.965741531561892e-2 7.053359773861224e-2 7.142080117975405e-2
      7.231916426638680e-2 7.322882736957069e-2 7.414993262601638e-2 7.508262396029398e-2
      7.602704710732229e-2 7.698334963513922e-2 7.795168096796048e-2 7.893219240952705e-2
      7.992503716674626e-2 8.093037037363166e-2 8.194834911554192e-2 8.297913245372669e-2
      8.402288145017987e-2 8.507975919280536e-2 8.614993082090100e-2 8.723356355096064e-2
      8.833082670280318e-2 8.944189172602867e-2 9.056693222680712e-2 9.170612399500603e-2
      9.285964503165655e-2 9.402767557676768e-2 9.521039813748866e-2 9.640799751662549e-2
      9.762066084151806e-2 9.884857759327774e-2 1.000919396363953e-1 1.013509412487200e-1
      1.026257791518146e-1 1.039166525416956e-1 1.052237631199562e-1 1.065473151252837e-1
      1.078875153653719e-1 1.092445732492346e-1 1.106187008199275e-1 1.120101127876788e-1
      1.134190265634395e-1 1.148456622928538e-1 1.162902428906565e-1 1.177529940755053e-1
      1.192341444052486e-1 1.207339253126389e-1 1.222525711414946e-1 1.237903191833158e-1
      1.253474097143629e-1 1.269240860331990e-1 1.285205944987068e-1 1.301371845685825e-1
      1.317741088383129e-1 1.334316230806460e-1 1.351099862855540e-1 1.368094607007025e-1
      1.385303118724268e-1 1.402728086872230e-1 1.420372234137640e-1 1.438238317454402e-1
      1.456329128434385e-1 1.474647493803612e-1 1.493196275843938e-1 1.511978372840298e-1
      1.530996719533556e-1 1.550254287579078e-1 1.569754086011054e-1 1.589499161712656e-1
      1.609492599892139e-1 1.629737524564891e-1 1.650237099041583e-1 1.670994526422436e-1
      1.692013050097705e-1 1.713295954254481e-1 1.734846564389835e-1 1.756668247830447e-1
      1.778764414258756e-1 1.801138516245713e-1 1.823794049790282e-1 1.846734554865665e-1
      1.869963615972460e-1 1.893484862698717e-1 1.917301970287096e-1 1.941418660209118e-1
      1.965838700746640e-1 1.990565907580687e-1 2.015604144387629e-1 2.040957323442909e-1
      2.066629406232340e-1 2.092624404071082e-1 2.118946378730441e-1 2.145599443072504e-1
      2.172587761692802e-1 2.199915551571032e-1 2.227587082729955e-1 2.255606678902619e-1
      2.283978718207925e-1 2.312707633834742e-1 2.341797914734590e-1 2.371254106323036e-1
      2.401080811189953e-1 2.431282689818651e-1 2.461864461314117e-1 2.492830904140369e-1
      2.524186856867093e-1 2.555937218925704e-1 2.588086951374863e-1 2.620641077675678e-1
      2.653604684476620e-1 2.686982922408308e-1 2.720781006888336e-1 2.755004218936157e-1
      2.789657905998287e-1 2.824747482783837e-1 2.860278432110561e-1 2.896256305761588e-1
      2.932686725352865e-1 2.969575383211576e-1 3.006928043265566e-1 3.044750541943955e-1
      3.083048789089120e-1 3.121828768880087e-1 3.161096540767601e-1 3.200858240420917e-1
      3.241120080686489e-1 3.281888352558784e-1 3.323169426163215e-1 3.364969751751525e-1
      3.407295860709636e-1 3.450154366578173e-1 3.493551966085888e-1 3.537495440195986e-1
      3.581991655165703e-1 3.627047563619166e-1 3.672670205633723e-1 3.718866709840022e-1
      3.765644294535821e-1 3.813010268813903e-1 3.860972033704124e-1 3.909537083329813e-1
      3.958713006078794e-1 4.008507485789032e-1 4.058928302949298e-1 4.109983335914858e-1
      4.161680562138476e-1 4.214028059416939e-1 4.267034007153185e-1 4.320706687634398e-1
      4.375054487326107e-1 4.430085898182570e-1 4.485809518973712e-1 4.542234056628635e-1
      4.599368327596155e-1 4.657221259222356e-1 4.715801891145493e-1 4.775119376708504e-1
      4.835182984389173e-1 4.896002099248408e-1 4.957586224396654e-1 5.019944982478741e-1
      5.083088117177505e-1 5.147025494736194e-1 5.211767105500139e-1 5.277323065477750e-1
      5.343703617921131e-1 5.410919134926670e-1 5.478980119055632e-1 5.547897204975269e-1
      5.617681161120477e-1 5.688342891376362e-1 5.759893436782058e-1 5.832343977255835e-1
      5.905705833342053e-1 5.979990467979994e-1 6.055209488294931e-1 6.131374647411846e-1
      6.208497846291786e-1 6.286591135591495e-1 6.365666717546321e-1 6.445736947876802e-1
      6.526814337719355e-1 6.608911555581070e-1 6.692041429319280e-1 6.776216948145897e-1
      6.861451264656971e-1 6.947757696887891e-1 7.035149730394259e-1 7.123641020359126e-1
      7.213245393726596e-1 7.303976851362285e-1 7.395849570241069e-1 7.488877905662163e-1
      7.583076393492255e-1 7.678459752436734e-1 7.775042886339466e-1 7.872840886511648e-1
      7.971869034089756e-1 8.072142802423331e-1 8.173677859492702e-1 8.276490070357083e-1
      8.380595499633618e-1 8.486010414007414e-1 8.592751284773318e-1 8.700834790409571e-1
      8.810277819183799e-1 8.921097471791938e-1 9.033311064030141e-1 9.146936129500514e-1
      9.261990422350724e-1 9.378491920048077e-1 9.496458826188642e-1 9.615909573341478e-1
      9.736862825928869e-1 9.859337483142630e-1 9.983352681897093e-1 1.010892779981941e0
      1.023608245827720e0 1.036483652544457e0 1.049521011940648e0 1.062722361130221e0
      1.076089762850847e0 1.089625305786238e0 1.103331104892519e0 1.117209301728685e0
      1.131262064791224e0 1.145491589852960e0 1.159900100306129e0 1.174489847509806e0
      1.189263111141676e0 1.204222199554235e0 1.219369450135485e0 1.234707229674143e0
      1.250237934729470e0 1.265963992005728e0 1.281887858731360e0 1.298012023042941e0
      1.314339004373946e0 1.330871353848429e0 1.347611654679631e0 1.364562522573612e0
      1.381726606137971e0 1.399106587295682e0 1.416705181704162e0 1.434525139179595e0
      1.452569244126587e0 1.470840315973250e0 1.489341209611730e0 1.508074815844300e0
      1.527044061835050e0 1.546251911567255e0 1.565701366306518e0 1.585395465069709e0
      1.605337285099829e0 1.625529942346832e0 1.645976591954491e0 1.666680428753410e0
      1.687644687760208e0 1.708872644683008e0 1.730367616433270e0 1.752132961644058e0
      1.774172081194848e0 1.796488418742902e0 1.819085461261369e0 1.841966739584120e0
      1.865135828957438e0 1.888596349598682e0 1.912351967261927e0 1.936406393810766e0
      1.960763387798292e0 1.985426755054361e0 2.010400349280294e0 2.035688072650989e0
      2.061293876424675e0 2.087221761560292e0 2.113475779342634e0 2.140060032015402e0
      2.166978673422154e0 2.194235909655381e0 2.221835999713704e0 2.249783256167338e0
      2.278082045831972e0 2.306736790451057e0 2.335751967386742e0 2.365132110319460e0
      2.394881809956310e0 2.425005714748395e0 2.455508531617117e0 2.486395026689676e0
      2.517670026043769e0 2.549338416461667e0 2.581405146193810e0 2.613875225731951e0
      2.646753728592083e0 2.680045792107175e0 2.713756618229874e0 2.747891474345357e0
      2.782455694094331e0 2.817454678206457e0 2.852893895344213e0 2.888778882957370e0
      2.925115248148261e0 2.961908668547862e0 2.999164893202974e0 3.036889743474502e0
      3.075089113947044e0 3.113768973349962e0 3.152935365489974e0 3.192594410195539e0
      3.232752304273087e0 3.273415322475258e0 3.314589818481387e0 3.356282225890233e0
      3.398499059225283e0 3.441246914952643e0 3.484532472511730e0 3.528362495358990e0
      3.572743832024652e0 3.617683417182872e0 3.663188272735267e0 3.709265508908085e0
      3.755922325363236e0 3.803166012323202e0 3.851003951710194e0 3.899443618299577e0
      3.948492580887791e0 3.998158503475047e0 4.048449146462780e0 4.099372367866282e0
      4.150936124542508e0 4.203148473433331e0 4.256017572824508e0 4.309551683620366e0
      4.363759170634641e0 4.418648503897473e0 4.474228259978840e0 4.530507123328727e0
      4.587493887634013e0 4.645197457192570e0 4.703626848304549e0 4.762791190681172e0
      4.822699728871321e0 4.883361823705956e0 4.944786953760821e0 5.006984716837469e0
      5.069964831462901e0 5.133737138408184e0 5.198311602226003e0 5.263698312807715e0
      5.329907486959892e0 5.396949470000678e0 5.464834737376339e0 5.533573896297999e0
      5.603177687399099e0 5.673656986413619e0 5.745022805875400e0 5.817286296838948e0
      5.890458750621730e0 5.964551600568527e0 6.039576423837898e0 6.115544943211096e0
      6.192469028923855e0 6.270360700521049e0 6.349232128734847e0 6.429095637386383e0
      6.509963705311347e0 6.591848968309901e0 6.674764221120963e0 6.758722419421489e0
      6.843736681850789e0 6.929820292060306e0 7.016986700789299e0 7.105249527966447e0
      7.194622564838083e0 7.285119776123062e0 7.376755302194738e0 7.469543461290519e0
      7.563498751749020e0 7.658635854275539e0 7.754969634235916e0 7.852515143979239e0
      7.951287625189887e0 8.051302511268979e0 8.152575429745957e0 8.255122204720392e0
      8.358958859334475e0 8.464101618276779e0 8.570566910317273e0 8.678371370874457e0
      8.787531844614641e0 8.898065388083900e0 9.009989272373319e0 9.123320985817497e0
      9.238078236727247e0 9.354278956156520e0 9.471941300704104e0 9.591083655350754e0
      9.711724636331747e0 9.833883094045824e0 9.957578116000555e0 1.008282902979474e1
      1.020965540613853e1 1.033807706191121e1 1.046811406325780e1 1.059978672872433e1
      1.073311563243264e1 1.086812160729523e1 1.100482574827031e1 1.114324941565804e1
      1.128341423843811e1 1.142534211764920e1 1.156905522981123e1 1.171457603039033e1
      1.186192725730766e1 1.201113193449225e1 1.216221337547842e1 1.231519518704874e1
      1.247010127292248e1 1.262695583749073e1 1.278578338959835e1 1.294660874637345e1
      1.310945703710527e1 1.327435370717052e1 1.344132452200940e1 1.361039557115145e1
      1.378159327229203e1 1.395494437542030e1 1.413047596699877e1 1.430821547419575e1
      1.448819066917089e1 1.467042967341452e1 1.485496096214186e1 1.504181336874217e1
      1.523101608928415e1 1.542259868707785e1 1.561659109729390e1 1.581302363164113e1
      1.601192698310262e1 1.621333223073174e1 1.641727084450823e1 1.662377469025533e1
      1.683287603461914e1 1.704460755011009e1 1.725900232020828e1 1.747609384453273e1
      1.769591604407575e1 1.791850326650331e1 1.814389029152171e1 1.837211233631218e1
      1.860320506103360e1 1.883720457439428e1 1.907414743929434e1 1.931407067853840e1
      1.955701178062077e1 1.980300870558295e1 2.005209989094487e1 2.030432425771110e1
      2.055972121645203e1 2.081833067346211e1 2.108019303699518e1 2.134534922357822e1
      2.161384066440495e1 2.188570931180914e1 2.216099764582013e1 2.243974868080021e1
      2.272200597216565e1 2.300781362319257e1 2.329721629190783e1 2.359025919806725e1
      2.388698813022117e1 2.418744945286885e1 2.449169011370333e1 2.479975765094677e1
      2.511170020077866e1 2.542756650485712e1 2.574740591793470e1 2.607126841557052e1
      2.639920460193862e1 2.673126571773538e1 2.706750364818577e1 2.740797093115039e1
      2.775272076533501e1 2.810180701860252e1 2.845528423639025e1 2.881320765023268e1
      2.917563318639136e1 2.954261747459373e1 2.991421785688139e1 3.029049239657013e1
      3.067149988732238e1 3.105729986233361e1 3.144795260363496e1 3.184351915151193e1
      3.224406131404246e1 3.264964167675442e1 3.306032361240453e1 3.347617129088089e1
      3.389724968922918e1 3.432362460180590e1 3.475536265055868e1 3.519253129543589e1
      3.563519884492783e1 3.608343446673959e1 3.653730819859911e1 3.699689095920045e1
      3.746225455928486e1 3.793347171286177e1 3.841061604857001e1 3.889376212118282e1
      3.938298542325713e1 3.987836239692905e1 4.037997044585873e1 4.088788794732418e1
      4.140219426446845e1 4.192296975870004e1 4.245029580224930e1 4.298425479088354e1
      4.352493015678092e1 4.407240638156745e1 4.462676900951719e1 4.518810466091845e1
      4.575650104560897e1 4.633204697668012e1 4.691483238435465e1 4.750494833003829e1
      4.810248702054799e1 4.870754182252000e1 4.932020727699795e1 4.994057911420568e1