<?xml version="1.0" encoding="UTF-8"?>
<UPF version="2.0.1">
  <PP_INFO><![CDATA[
Generated using "atomic" code by A. Dal Corso  v.6.3MaX
Author: ADC
Generation date: 27May2022
Pseudopotential type: PAW
Element: Pu
Functional:  SLA  PW   PBX  PBC
    Suggested minimum cutoff for wavefunctions:  45. Ry
    Suggested minimum cutoff for charge density: 351. Ry
    The Pseudo was generated with a Scalar-Relativistic Calculation
    Local Potential by smoothing AE potential with Bessel fncs, cutoff radius:   2.1000
    Pseudopotential contains additional information for GIPAW reconstruction.
    Valence configuration:
    nl pn  l   occ       Rcut    Rcut US       E pseu
    6S  1  0  2.00      1.400      1.600    -3.933095
    7S  2  0  2.00      1.400      1.600    -0.336794
    6P  2  1  6.00      1.400      2.100    -1.897163
    6D  3  2  1.50      1.500      2.200    -0.191371
    5F  4  3  4.50      1.300      1.900    -0.502372
    Generation configuration:
    6S  1  0  2.00      1.400      1.600    -3.933138
    7S  2  0  2.00      1.400      1.600    -0.336802
    6P  2  1  6.00      1.400      2.100    -1.897195
    7P  3  1  0.00      1.400      2.100     5.000000
    6D  3  2  1.50      1.500      2.200    -0.191386
    6D  3  2  0.00      1.500      2.200     4.800000
    5F  4  3  4.50      1.300      1.900    -0.502423
    5F  4  3  0.00      1.300      1.900     3.100000
    Pseudization used: troullier-martins
]]>
    <PP_INPUTFILE><![CDATA[
 &input
   title='Pu',
   zed=94.0,
   rel=1,
   config='[Rn] 6d1.5 7s2.0 7p0. 5f4.5',
   iswitch=3,
   dft='PBE'
 /
 &inputp
   lpaw=.true.,
   pseudotype=3,
   file_pseudopw='Pu.pbe-spfn-kjpaw_psl.1.0.0.UPF',
   author='ADC',
   lloc=-1,
   rcloc=2.1,
   which_augfun='PSQ',
   rmatch_augfun_nc=.true.,
   nlcc=.true.,
   new_core_ps=.true.,
   rcore=1.1,
   tm=.true.
 /
8
6S  1  0  2.00  0.00  1.40  1.60  0.0
7S  2  0  2.00  0.00  1.40  1.60  0.0
6P  2  1  6.00  0.00  1.40  2.10  0.0
7P  3  1  0.00  5.00  1.40  2.10  0.0
6D  3  2  1.50  0.00  1.50  2.20  0.0
6D  3  2  0.00  4.80  1.50  2.20  0.0
5F  4  3  4.50  0.00  1.30  1.90  0.0
5F  4  3  0.00  3.10  1.30  1.90  0.0
]]></PP_INPUTFILE>
  </PP_INFO>
  <!--
 END OF HUMAN READABLE SECTION 
-->
  <PP_HEADER generated="Generated using &quot;atomic&quot; code by A. Dal Corso  v.6.3MaX" author="ADC" date="27May2022" comment="" element="Pu" pseudo_type="PAW" relativistic="scalar" is_ultrasoft="true" is_paw="true" is_coulomb="false" has_so="false" has_wfc="true" has_gipaw="true" paw_as_gipaw="true" core_correction="true" functional=" SLA  PW   PBX  PBC" z_valence="1.600000000000e1" total_psenergy="-1.099260041327e3" wfc_cutoff="4.522224044716e1" rho_cutoff="3.507174383927e2" l_max="3" l_max_rho="6" l_local="-1" mesh_size="1293" number_of_wfc="5" number_of_proj="8"/>
  <PP_MESH dx="1.250000000000e-2" mesh="1293" xmin="-7.000000000000e0" rmax="1.000000000000e2" zmesh="9.400000000000e1">
    <PP_R>
      9.700871973984215e-6 9.822893922010875e-6 9.946450717197683e-6 1.007156166554526e-5
      1.019824631589383e-5 1.032652446297775e-5 1.045641615051850e-5 1.058794167435650e-5
      1.072112158562245e-5 1.085597669394845e-5 1.099252807071954e-5 1.113079705236615e-5
      1.127080524369798e-5 1.141257452127975e-5 1.155612703684955e-5 1.170148522077998e-5
      1.184867178558301e-5 1.199770972945886e-5 1.214862233988944e-5 1.230143319727721e-5
      1.245616617862952e-5 1.261284546128949e-5 1.277149552671384e-5 1.293214116429803e-5
      1.309480747524980e-5 1.325951987651117e-5 1.342630410472994e-5 1.359518622028111e-5
      1.376619261133881e-5 1.393934999799957e-5 1.411468543645736e-5 1.429222632323113e-5
      1.447200039944568e-5 1.465403575516614e-5 1.483836083378722e-5 1.502500443647746e-5
      1.521399572667952e-5 1.540536423466697e-5 1.559913986215855e-5 1.579535288699029e-5
      1.599403396784651e-5 1.619521414905034e-5 1.639892486541436e-5 1.660519794715247e-5
      1.681406562485337e-5 1.702556053451664e-5 1.723971572265220e-5 1.745656465144390e-5
      1.767614120397802e-5 1.789847968953767e-5 1.812361484896355e-5 1.835158186008236e-5
      1.858241634320340e-5 1.881615436668426e-5 1.905283245256670e-5 1.929248758228314e-5
      1.953515720243518e-5 1.978087923064469e-5 2.002969206147848e-5 2.028163457244762e-5
      2.053674613008201e-5 2.079506659608156e-5 2.105663633354465e-5 2.132149621327489e-5
      2.158968762016738e-5 2.186125245967510e-5 2.213623316435669e-5 2.241467270050675e-5
      2.269661457486923e-5 2.298210284143569e-5 2.327118210832857e-5 2.356389754477146e-5
      2.386029488814684e-5 2.416042045114263e-5 2.446432112898868e-5 2.477204440678419e-5
      2.508363836691737e-5 2.539915169657844e-5 2.571863369536706e-5 2.604213428299556e-5
      2.636970400708893e-5 2.670139405108296e-5 2.703725624222190e-5 2.737734305965638e-5
      2.772170764264360e-5 2.807040379885023e-5 2.842348601276012e-5 2.878100945418752e-5
      2.914302998689754e-5 2.950960417733499e-5 2.988078930346290e-5 3.025664336371243e-5
      3.063722508604514e-5 3.102259393712944e-5 3.141281013163241e-5 3.180793464162830e-5
      3.220802920612570e-5 3.261315634071429e-5 3.302337934733308e-5 3.343876232416148e-5
      3.385937017563476e-5 3.428526862258538e-5 3.471652421251221e-5 3.515320432997853e-5
      3.559537720714120e-5 3.604311193441183e-5 3.649647847125249e-5 3.695554765710696e-5
      3.742039122246945e-5 3.789108180009287e-5 3.836769293633756e-5 3.885029910266323e-5
      3.933897570726524e-5 3.983379910685724e-5 4.033484661860221e-5 4.084219653219322e-5
      4.135592812208650e-5 4.187612165988813e-5 4.240285842689672e-5 4.293622072680381e-5
      4.347629189855390e-5 4.402315632936634e-5 4.457689946792105e-5 4.513760783771000e-5
      4.570536905055683e-5 4.628027182030606e-5 4.686240597668517e-5 4.745186247934045e-5
      4.804873343204964e-5 4.865311209711355e-5 4.926509290992815e-5 4.988477149374054e-5
      5.051224467459019e-5 5.114761049643813e-5 5.179096823648683e-5 5.244241842069204e-5
      5.310206283947039e-5 5.377000456360442e-5 5.444634796034736e-5 5.513119870973111e-5
      5.582466382107855e-5 5.652685164972421e-5 5.723787191394490e-5 5.795783571210346e-5
      5.868685554000821e-5 5.942504530849041e-5 6.017252036120326e-5 6.092939749264453e-5
      6.169579496640576e-5 6.247183253365161e-5 6.325763145183077e-5 6.405331450362296e-5
      6.485900601612381e-5 6.567483188027129e-5 6.650091957051661e-5 6.733739816474199e-5
      6.818439836442960e-5 6.904205251508390e-5 6.991049462691078e-5 7.078986039575716e-5
      7.168028722431348e-5 7.258191424358326e-5 7.349488233462267e-5 7.441933415055329e-5
      7.535541413885239e-5 7.630326856392232e-5 7.726304552994565e-5 7.823489500402591e-5
      7.921896883962061e-5 8.021542080026888e-5 8.122440658361663e-5 8.224608384574545e-5
      8.328061222580612e-5 8.432815337096271e-5 8.538887096165066e-5 8.646293073715118e-5
      8.755050052148967e-5 8.865175024965755e-5 8.976685199416522e-5 9.089597999192922e-5
      9.203931067149611e-5 9.319702268061093e-5 9.436929691413042e-5 9.555631654228847e-5
      9.675826703931728e-5 9.797533621242700e-5 9.920771423115243e-5 1.004555936570661e-4
      1.017191694738671e-4 1.029986391178478e-4 1.042942025087429e-4 1.056060620809682e-4
      1.069344228152509e-4 1.082794922706582e-4 1.096414806170293e-4 1.110206006678139e-4
      1.124170679133261e-4 1.138311005544141e-4 1.152629195365548e-4 1.167127485843775e-4
      1.181808142366203e-4 1.196673458815284e-4 1.211725757926955e-4 1.226967391653577e-4
      1.242400741531431e-4 1.258028219052832e-4 1.273852266042939e-4 1.289875355041287e-4
      1.306099989688132e-4 1.322528705115648e-4 1.339164068344042e-4 1.356008678682667e-4
      1.373065168136157e-4 1.390336201815690e-4 1.407824478355419e-4 1.425532730334131e-4
      1.443463724702227e-4 1.461620263214058e-4 1.480005182865704e-4 1.498621356338270e-4
      1.517471692446729e-4 1.536559136594455e-4 1.555886671233428e-4 1.575457316330255e-4
      1.595274129838055e-4 1.615340208174249e-4 1.635658686704408e-4 1.656232740232137e-4
      1.677065583495158e-4 1.698160471667620e-4 1.719520700868710e-4 1.741149608677705e-4
      1.763050574655453e-4 1.785227020872442e-4 1.807682412443520e-4 1.830420258069296e-4
      1.853444110584417e-4 1.876757567512677e-4 1.900364271629153e-4 1.924267911529395e-4
      1.948472222205764e-4 1.972980985631052e-4 1.997798031349405e-4 2.022927237074708e-4
      2.048372529296482e-4 2.074137883893404e-4 2.100227326754551e-4 2.126644934408450e-4
      2.153394834660042e-4 2.180481207235666e-4 2.207908284436143e-4 2.235680351798088e-4
      2.263801748763529e-4 2.292276869357954e-4 2.321110162876891e-4 2.350306134581111e-4
      2.379869346400596e-4 2.409804417647337e-4 2.440116025737120e-4 2.470808906920380e-4
      2.501887857022246e-4 2.533357732191902e-4 2.565223449661370e-4 2.597489988513834e-4
      2.630162390461638e-4 2.663245760634058e-4 2.696745268374994e-4 2.730666148050684e-4
      2.765013699867591e-4 2.799793290700565e-4 2.835010354931434e-4 2.870670395298136e-4
      2.906778983754528e-4 2.943341762341019e-4 2.980364444066152e-4 3.017852813799266e-4
      3.055812729174408e-4 3.094250121505583e-4 3.133170996713541e-4 3.172581436264224e-4
      3.212487598118989e-4 3.252895717696819e-4 3.293812108848605e-4 3.335243164843711e-4
      3.377195359368931e-4 3.419675247540007e-4 3.462689466925897e-4 3.506244738585890e-4
      3.550347868119795e-4 3.595005746731336e-4 3.640225352304896e-4 3.686013750495854e-4
      3.732378095834579e-4 3.779325632844357e-4 3.826863697173369e-4 3.874999716740876e-4
      3.923741212897874e-4 3.973095801602300e-4 4.023071194609050e-4 4.073675200674964e-4
      4.124915726778937e-4 4.176800779357427e-4 4.229338465555460e-4 4.282536994493388e-4
      4.336404678549599e-4 4.390949934659313e-4 4.446181285629778e-4 4.502107361471949e-4
      4.558736900748956e-4 4.616078751941529e-4 4.674141874830577e-4 4.732935341897183e-4
      4.792468339740194e-4 4.852750170511639e-4 4.913790253370226e-4 4.975598125953082e-4
      5.038183445866055e-4 5.101555992192710e-4 5.165725667022337e-4 5.230702496997189e-4
      5.296496634879143e-4 5.363118361136103e-4 5.430578085548342e-4 5.498886348835043e-4
      5.568053824301317e-4 5.638091319505937e-4 5.709009777950015e-4 5.780820280786968e-4
      5.853534048553963e-4 5.927162442925149e-4 6.001716968486952e-4 6.077209274535669e-4
      6.153651156897712e-4 6.231054559772719e-4 6.309431577599865e-4 6.388794456947653e-4
      6.469155598427444e-4 6.550527558631090e-4 6.632923052092920e-4 6.716354953276422e-4
      6.800836298585912e-4 6.886380288403464e-4 6.973000289151527e-4 7.060709835381451e-4
      7.149522631888273e-4 7.239452555852148e-4 7.330513659006657e-4 7.422720169834434e-4
      7.516086495790385e-4 7.610627225552896e-4 7.706357131303346e-4 7.803291171034270e-4
      7.901444490886586e-4 8.000832427516215e-4 8.101470510490461e-4 8.203374464714543e-4
      8.306560212888636e-4 8.411043877995819e-4 8.516841785821338e-4 8.623970467503536e-4
      8.732446662116894e-4 8.842287319287506e-4 8.953509601841533e-4 9.066130888486901e-4
      9.180168776528776e-4 9.295641084619191e-4 9.412565855541203e-4 9.530961359028161e-4
      9.650846094618357e-4 9.772238794545627e-4 9.895158426666328e-4 1.001962419742305e-3
      1.014565555484571e-3 1.027327219159031e-3 1.040249404801596e-3 1.053334131530067e-3
      1.066583443859614e-3 1.079999412022246e-3 1.093584132290281e-3 1.107339727303900e-3
      1.121268346402812e-3 1.135372165962087e-3 1.149653389732227e-3 1.164114249183500e-3
      1.178757003854617e-3 1.193583941705784e-3 1.208597379476210e-3 1.223799663046090e-3
      1.239193167803160e-3 1.254780299013857e-3 1.270563492199145e-3 1.286545213515071e-3
      1.302727960138106e-3 1.319114260655333e-3 1.335706675459546e-3 1.352507797149315e-3
      1.369520250934088e-3 1.386746695044380e-3 1.404189821147131e-3 1.421852354766282e-3
      1.439737055708646e-3 1.457846718495133e-3 1.476184172797397e-3 1.494752283879980e-3
      1.513553953048018e-3 1.532592118100567e-3 1.551869753789653e-3 1.571389872285073e-3
      1.591155523645055e-3 1.611169796292837e-3 1.631435817499239e-3 1.651956753871309e-3
      1.672735811847103e-3 1.693776238196706e-3 1.715081320529541e-3 1.736654387808068e-3
      1.758498810867942e-3 1.780618002944708e-3 1.803015420207130e-3 1.825694562297222e-3
      1.848658972877076e-3 1.871912240182569e-3 1.895457997584027e-3 1.919299924153945e-3
      1.943441745241859e-3 1.967887233056429e-3 1.992640207254862e-3 2.017704535539738e-3
      2.043084134263343e-3 2.068782969039614e-3 2.094805055363766e-3 2.121154459239736e-3
      2.147835297815484e-3 2.174851740026321e-3 2.202208007246306e-3 2.229908373947849e-3
      2.257957168369607e-3 2.286358773192773e-3 2.315117626225883e-3 2.344238221098234e-3
      2.373725107962019e-3 2.403582894203307e-3 2.433816245161942e-3 2.464429884860520e-3
      2.495428596742530e-3 2.526817224419768e-3 2.558600672429172e-3 2.590783906999157e-3
      2.623371956825602e-3 2.656369913857593e-3 2.689782934093048e-3 2.723616238384363e-3
      2.757875113254166e-3 2.792564911721356e-3 2.827691054137519e-3 2.863259029033871e-3
      2.899274393978858e-3 2.935742776446524e-3 2.972669874695823e-3 3.010061458660990e-3
      3.047923370853086e-3 3.086261527272930e-3 3.125081918335457e-3 3.164390609805752e-3
      3.204193743746833e-3 3.244497539479354e-3 3.285308294553403e-3 3.326632385732488e-3
      3.368476269989929e-3 3.410846485517776e-3 3.453749652748401e-3 3.497192475388981e-3
      3.541181741468933e-3 3.585724324400580e-3 3.630827184053127e-3 3.676497367840154e-3
      3.722742011820802e-3 3.769568341814775e-3 3.816983674531402e-3 3.864995418712888e-3
      3.913611076291939e-3 3.962838243563968e-3 4.012684612374012e-3 4.063157971318607e-3
      4.114266206962782e-3 4.166017305072329e-3 4.218419351861627e-3 4.271480535257093e-3
      4.325209146176589e-3 4.379613579824881e-3 4.434702337005408e-3 4.490484025448570e-3
      4.546967361156669e-3 4.604161169765825e-3 4.662074387924996e-3 4.720716064692338e-3
      4.780095362949167e-3 4.840221560831636e-3 4.901104053180490e-3 4.962752353009028e-3
      5.025176092989518e-3 5.088385026958342e-3 5.152389031440028e-3 5.217198107190493e-3
      5.282822380759679e-3 5.349272106073839e-3 5.416557666037759e-3 5.484689574157066e-3
      5.553678476181025e-3 5.623535151765933e-3 5.694270516159471e-3 5.765895621906248e-3
      5.838421660574751e-3 5.911859964506082e-3 5.986222008584639e-3 6.061519412031096e-3
      6.137763940217944e-3 6.214967506507830e-3 6.293142174115058e-3 6.372300157990487e-3
      6.452453826730142e-3 6.533615704507850e-3 6.615798473032132e-3 6.699014973527770e-3
      6.783278208742274e-3 6.868601344977575e-3 6.954997714147312e-3 7.042480815859939e-3
      7.131064319528081e-3 7.220762066504413e-3 7.311588072244386e-3 7.403556528496193e-3
      7.496681805518230e-3 7.590978454324499e-3 7.686461208958219e-3 7.783144988794062e-3
      7.881044900869339e-3 7.980176242244491e-3 8.080554502393287e-3 8.182195365623096e-3
      8.285114713525584e-3 8.389328627458264e-3 8.494853391057205e-3 8.601705492781415e-3
      8.709901628489176e-3 8.819458704046813e-3 8.930393837970293e-3 9.042724364099984e-3
      9.156467834309129e-3 9.271642021246368e-3 9.388264921112718e-3 9.506354756473574e-3
      9.625929979105956e-3 9.747009272881682e-3 9.869611556686740e-3 9.993755987377401e-3
      1.011946196277355e-2 1.024674912468960e-2 1.037563736200354e-2 1.050614681376470e-2
      1.063829787234043e-2 1.077211118660250e-2 1.090760766515350e-2 1.104480847959389e-2
      1.118373506783005e-2 1.132440913742403e-2 1.146685266898544e-2 1.161108791960587e-2
      1.175713742633668e-2 1.190502400971044e-2 1.205477077730666e-2 1.220640112736247e-2
      1.235993875242855e-2 1.251540764307118e-2 1.267283209162084e-2 1.283223669596788e-2
      1.299364636340606e-2 1.315708631452431e-2 1.332258208714750e-2 1.349015954032681e-2
      1.365984485838023e-2 1.383166455498395e-2 1.400564547731513e-2 1.418181481024685e-2
      1.436020008059579e-2 1.454082916142336e-2 1.472373027639098e-2 1.490893200416993e-2
      1.509646328290700e-2 1.528635341474601e-2 1.547863207040640e-2 1.567332929381932e-2
      1.587047550682203e-2 1.607010151391142e-2 1.627223850705723e-2 1.647691807057589e-2
      1.668417218606563e-2 1.689403323740366e-2 1.710653401580621e-2 1.732170772495225e-2
      1.753958798617158e-2 1.776020884369833e-2 1.798360476999034e-2 1.820981067111559e-2
      1.843886189220634e-2 1.867079422298190e-2 1.890564390334084e-2 1.914344762902350e-2
      1.938424255734585e-2 1.962806631300533e-2 1.987495699395981e-2 2.012495317738053e-2
      2.037809392567975e-2 2.063441879261442e-2 2.089396782946648e-2 2.115678159130097e-2
      2.142290114330295e-2 2.169236806719379e-2 2.196522446772859e-2 2.224151297927508e-2
      2.252127677247526e-2 2.280455956099106e-2 2.309140560833450e-2 2.338185973478407e-2
      2.367596732438797e-2 2.397377433205541e-2 2.427532729073728e-2 2.458067331869686e-2
      2.488986012687225e-2 2.520293602633129e-2 2.551994993582019e-2 2.584095138940733e-2
      2.616599054422288e-2 2.649511818829609e-2 2.682838574849095e-2 2.716584529854178e-2
      2.750754956718986e-2 2.785355194642236e-2 2.820390649981498e-2 2.855866797097949e-2
      2.891789179211750e-2 2.928163409268199e-2 2.964995170814736e-2 3.002290218889042e-2
      3.040054380918261e-2 3.078293557629533e-2 3.117013723972026e-2 3.156220930050498e-2
      3.195921302070672e-2 3.236121043296452e-2 3.276826435019182e-2 3.318043837539144e-2
      3.359779691159329e-2 3.402040517191782e-2 3.444832918976557e-2 3.488163582913483e-2
      3.532039279506970e-2 3.576466864423862e-2 3.621453279564700e-2 3.667005554148380e-2
      3.713130805810470e-2 3.759836241715397e-2 3.807129159682532e-2 3.855016949326533e-2
      3.903507093211964e-2 3.952607168022451e-2 4.002324845744590e-2 4.052667894866662e-2
      4.103644181592524e-2 4.155261671070697e-2 4.207528428638912e-2 4.260452621084393e-2
      4.314042517919868e-2 4.368306492675757e-2 4.423253024208522e-2 4.478890698025490e-2
      4.535228207626407e-2 4.592274355861750e-2 4.650038056308253e-2 4.708528334661636e-2
      4.767754330146877e-2 4.827725296946284e-2 4.888450605645414e-2 4.949939744697307e-2
      5.012202321905047e-2 5.075248065922981e-2 5.139086827776898e-2 5.203728582403198e-2
      5.269183430207567e-2 5.335461598643152e-2 5.402573443808598e-2 5.470529452066267e-2
      5.539340241680692e-2 5.609016564477755e-2 5.679569307524659e-2 5.751009494831028e-2
      5.823348289071495e-2 5.896596993329812e-2 5.970767052865058e-2 6.045870056899945e-2
      6.121917740431629e-2 6.198921986065404e-2 6.276894825871295e-2 6.355848443264173e-2
      6.435795174907394e-2 6.516747512640411e-2 6.598718105430715e-2 6.681719761350178e-2
      6.765765449576413e-2 6.850868302419216e-2 6.937041617372460e-2 7.024298859191952e-2
      7.112653661999225e-2 7.202119831411993e-2 7.292711346701259e-2 7.384442362975570e-2
      7.477327213392872e-2 7.571380411399997e-2 7.666616653000496e-2 7.763050819050889e-2
      7.860697977585797e-2 7.959573386172432e-2 8.059692494294520e-2 8.161070945766411e-2
      8.263724581177422e-2 8.367669440366907e-2 8.472921764930618e-2 8.579498000758377e-2
      8.687414800603879e-2 8.796689026686675e-2 8.907337753326876e-2 9.019378269613172e-2
      9.132828082104146e-2 9.247704917563832e-2 9.364026725731502e-2 9.481811682126317e-2
      9.601078190887373e-2 9.721844887649285e-2 9.844130642454139e-2 9.967954562699932e-2
      1.009333599612609e-1 1.022029453383671e-1 1.034885001336158e-1 1.047902252175594e-1
      1.061083239873907e-1 1.074430023987240e-1 1.087944689977767e-1 1.101629349539542e-1
      1.115486140928465e-1 1.129517229296384e-1 1.143724807029399e-1 1.158111094090441e-1
      1.172678338366128e-1 1.187428816018017e-1 1.202364831838254e-1 1.217488719609694e-1
      1.232802842470575e-1 1.248309593283746e-1 1.264011395010574e-1 1.279910701089526e-1
      1.296009995819518e-1 1.312311794748114e-1 1.328818645064554e-1 1.345533125997790e-1
      1.362457849219473e-1 1.379595459252035e-1 1.396948633881918e-1 1.414520084577956e-1
      1.432312556915075e-1 1.450328831003273e-1 1.468571721922031e-1 1.487044080160175e-1
      1.505748792061256e-1 1.524688780274569e-1 1.543867004211801e-1 1.563286460509462e-1
      1.582950183497112e-1 1.602861245671467e-1 1.623022758176509e-1 1.643437871289577e-1
      1.664109774913635e-1 1.685041699075684e-1 1.706236914431455e-1 1.727698732776474e-1
      1.749430507563517e-1 1.771435634426611e-1 1.793717551711601e-1 1.816279741013389e-1
      1.839125727719964e-1 1.862259081563222e-1 1.885683417176771e-1 1.909402394660708e-1
      1.933419720153518e-1 1.957739146411178e-1 1.982364473393512e-1 2.007299548857966e-1
      2.032548268960816e-1 2.058114578865938e-1 2.084002473361279e-1 2.110215997483014e-1
      2.136759247147624e-1 2.163636369791875e-1 2.190851565020855e-1 2.218409085264195e-1
      2.246313236440492e-1 2.274568378630143e-1 2.303178926756604e-1 2.332149351276220e-1
      2.361484178876773e-1 2.391187993184747e-1 2.421265435481567e-1 2.451721205428787e-1
      2.482560061802417e-1 2.513786823236516e-1 2.545406368976080e-1 2.577423639639465e-1
      2.609843637990359e-1 2.642671429719452e-1 2.675912144235999e-1 2.709570975469266e-1
      2.743653182680113e-1 2.778164091282766e-1 2.813109093676894e-1 2.848493650090230e-1
      2.884323289431692e-1 2.920603610155330e-1 2.957340281135074e-1 2.994539042550495e-1
      3.032205706783757e-1 3.070346159327770e-1 3.108966359705845e-1 3.148072342402870e-1
      3.187670217808194e-1 3.227766173170421e-1 3.268366473564142e-1 3.309477462868900e-1
      3.351105564760422e-1 3.393257283714309e-1 3.435939206022418e-1 3.479158000821933e-1
      3.522920421137480e-1 3.567233304936273e-1 3.612103576196548e-1 3.657538245989493e-1
      3.703544413574686e-1 3.750129267509419e-1 3.797300086771905e-1 3.845064241898610e-1
      3.893429196135961e-1 3.942402506606446e-1 3.991991825489468e-1 4.042204901217000e-1
      4.093049579684270e-1 4.144533805475747e-1 4.196665623106442e-1 4.249453178278929e-1
      4.302904719156110e-1 4.357028597649979e-1 4.411833270726683e-1 4.467327301727873e-1
      4.523519361708806e-1 4.580418230793187e-1 4.638032799545054e-1 4.696372070358009e-1
      4.755445158861794e-1 4.815261295346677e-1 4.875829826205694e-1 4.937160215394997e-1
      4.999262045912697e-1 5.062145021296138e-1 5.125818967138171e-1 5.190293832622389e-1
      5.255579692077680e-1 5.321686746552427e-1 5.388625325408368e-1 5.456405887934649e-1
      5.525039024982074e-1 5.594535460617921e-1 5.664906053801669e-1 5.736161800081656e-1
      5.808313833313217e-1 5.881373427398350e-1 5.955351998047250e-1 6.030261104562113e-1
      6.106112451643217e-1 6.182917891217871e-1 6.260689424292282e-1 6.339439202826701e-1
      6.419179531634262e-1 6.499922870303551e-1 6.581681835145520e-1 6.664469201164779e-1
      6.748297904055675e-1 6.833181042223612e-1 6.919131878831597e-1 7.006163843872733e-1
      7.094290536268639e-1 7.183525725994270e-1 7.273883356229598e-1 7.365377545538153e-1
      7.458022590073177e-1 7.551832965811376e-1 7.646823330814795e-1 7.743008527521249e-1
      7.840403585063388e-1 7.939023721617118e-1 8.038884346779435e-1 8.140001063976159e-1
      8.242389672900103e-1 8.346066171979697e-1 8.451046760878866e-1 8.557347843028225e-1
      8.664986028188100e-1 8.773978135043949e-1 8.884341193834178e-1 8.996092449011277e-1
      9.109249361936239e-1 9.223829613606904e-1 9.339851107420735e-1 9.457331971972163e-1
      9.576290563885300e-1 9.696745470682176e-1 9.818715513687010e-1 9.942219750967208e-1
      1.006727748031108e0 1.019390824224328e0 1.032213182307803e0 1.045196825801064e0
      1.058343783424829e0 1.071656109417969e0 1.085135883858507e0 1.098785212988626e0
      1.112606229543768e0 1.126601093085894e0 1.140771990340899e0 1.155121135540315e0
      1.169650770767273e0 1.184363166306833e0 1.199260621000738e0 1.214345462606585e0
      1.229620048161571e0 1.245086764350765e0 1.260748027880035e0 1.276606285853676e0
      1.292664016156755e0 1.308923727842304e0 1.325387961523356e0 1.342059289769917e0
      1.358940317510947e0 1.376033682441372e0 1.393342055434240e0 1.410868140958050e0
      1.428614677499314e0 1.446584437990480e0 1.464780230243178e0 1.483204897386970e0
      1.501861318313585e0 1.520752408126745e0 1.539881118597672e0 1.559250438626289e0
      1.578863394708262e0 1.598723051407883e0 1.618832511836911e0 1.639194918139457e0
      1.659813451982927e0 1.680691335055186e0 1.701831829567943e0 1.723238238766472e0
      1.744913907445766e0 1.766862222473150e0 1.789086613317505e0 1.811590552585119e0
      1.834377556562280e0 1.857451185764728e0 1.880815045493962e0 1.904472786400603e0
      1.928428105054802e0 1.952684744523830e0 1.977246494956961e0 2.002117194177665e0
      2.027300728283298e0 2.052801032252304e0 2.078622090559052e0 2.104767937796444e0
      2.131242659306296e0 2.158050391817711e0 2.185195324093440e0 2.212681697584368e0
      2.240513807092285e0 2.268696001440916e0 2.297232684155469e0 2.326128314150683e0
      2.355387406427523e0 2.385014532778694e0 2.415014322502958e0 2.445391463128499e0
      2.476150701145344e0 2.507296842747007e0 2.538834754581488e0 2.570769364511668e0
      2.603105662385323e0 2.635848700814791e0 2.669003595966432e0 2.702575528360077e0
      2.736569743678457e0 2.770991553586881e0 2.805846336563183e0 2.841139538738108e0
      2.876876674746308e0 2.913063328587985e0 2.949705154501425e0 2.986807877846485e0
      3.024377295999159e0 3.062419279257483e0 3.100939771758725e0 3.139944792408216e0
      3.179440435819793e0 3.219432873268083e0 3.259928353652815e0 3.300933204475175e0
      3.342453832826534e0 3.384496726389554e0 3.427068454451878e0 3.470175668932642e0
      3.513825105421797e0 3.558023584232607e0 3.602778011467314e0 3.648095380096217e0
      3.693982771050373e0 3.740447354327966e0 3.787496390114671e0 3.835137229918061e0
      3.883377317716265e0 3.932224191121162e0 3.981685482556087e0 4.031768920448463e0
      4.082482330437364e0 4.133833636596264e0 4.185830862671239e0 4.238482133334638e0
      4.291795675454629e0 4.345779819380644e0 4.400443000244987e0 4.455793759280897e0
      4.511840745157070e0 4.568592715329085e0 4.626058537407752e0 4.684247190544669e0
      4.743167766835294e0 4.802829472739527e0 4.863241630520308e0 4.924413679700208e0
      4.986355178536352e0 5.049075805513967e0 5.112585360858611e0 5.176893768067524e0
      5.242011075460178e0 5.307947457748320e0 5.374713217625845e0 5.442318787378555e0
      5.510774730514276e0 5.580091743413409e0 5.650280657000224e0 5.721352438435291e0
      5.793318192829036e0 5.866189164977008e0 5.939976741116872e0 6.014692450707502e0
      6.090347968230551e0 6.166955115014536e0 6.244525861082009e0 6.323072327019875e0
      6.402606785873215e0 6.483141665063065e0 6.564689548328124e0 6.647263177691073e0
      6.730875455449511e0 6.815539446191924e0 6.901268378839138e0 6.988075648711274e0
      7.075974819620870e0 7.164979625992228e0 7.255103975007399e0 7.346361948779301e0
      7.438767806551977e0 7.532335986928716e0 7.627081110128084e0 7.723017980268312e0
      7.820161587680573e0 7.918527111251138e0 8.018129920793205e0 8.118985579448422e0
      8.221109846118617e0 8.324518677928262e0 8.429228232717682e0 8.535254871567862e0
      8.642615161356851e0 8.751325877348323e0 8.861404005812860e0 8.972866746681952e0
      9.085731516235654e0 9.200015949823849e0 9.315737904621765e0 9.432915462420311e0
      9.551566932451259e0 9.671710854248216e0 9.793366000543415e0 9.916551380200939e0
      1.004128624118702e1 1.016759007357742e1 1.029548261260294e1 1.042498384173302e1
      1.055611399579815e1 1.068889356415172e1 1.082334329387140e1 1.095948419300100e1
      1.109733753383302e1 1.123692485623240e1 1.137826797100228e1 1.152138896329187e1
      1.166631019604743e1 1.181305431350644e1 1.196164424473575e1 1.211210320721448e1
      1.226445471046158e1 1.241872255970942e1 1.257493085962332e1 1.273310401806791e1
      1.289326674992105e1 1.305544408093539e1 1.321966135164889e1 1.338594422134422e1
      1.355431867205802e1 1.372481101264083e1 1.389744788286769e1 1.407225625760082e1
      1.424926345100446e1 1.442849712081264e1 1.460998527265098e1 1.479375626441239e1
      1.497983881068825e1 1.516826198725503e1 1.535905523561735e1 1.555224836760851e1
      1.574787157004837e1 1.594595540946034e1 1.614653083684737e1 1.634962919252800e1
      1.655528221103357e1 1.676352202606657e1 1.697438117552180e1 1.718789260657038e1
      1.740408968080773e1 1.762300617946665e1 1.784467630869536e1 1.806913470490258e1
      1.829641644016941e1 1.852655702772933e1 1.875959242751744e1 1.899555905178901e1
      1.923449377080918e1 1.947643391861396e1 1.972141729884360e1 1.996948219064975e1
      2.022066735467639e1 2.047501203911646e1 2.073255598584442e1 2.099333943662583e1
      2.125740313940554e1 2.152478835467427e1 2.179553686191594e1 2.206969096613567e1
      2.234729350446997e1 2.262838785288031e1 2.291301793293043e1 2.320122821864946e1
      2.349306374348097e1 2.378857010731936e1 2.408779348363529e1 2.439078062668999e1
      2.469757887884104e1 2.500823617793955e1 2.532280106482049e1 2.564132269088748e1
      2.596385082579256e1 2.629043586521304e1 2.662112883872580e1 2.695598141778068e1
      2.729504592377451e1 2.763837533622608e1 2.798602330105464e1 2.833804413896205e1
      2.869449285392032e1 2.905542514176647e1 2.942089739890468e1 2.979096673111876e1
      3.016569096249482e1 3.054512864445629e1 3.092933906491306e1 3.131838225752490e1
      3.171231901108222e1 3.211121087900429e1 3.251512018895691e1 3.292411005259165e1
      3.333824437540665e1 3.375758786673251e1 3.418220604984295e1 3.461216527219285e1
      3.504753271578560e1 3.548837640766988e1 3.593476523056952e1 3.638676893364635e1