<?xml version="1.0" encoding="UTF-8"?>
<UPF version="2.0.1">
  <PP_INFO><![CDATA[
Generated using "atomic" code by A. Dal Corso  v.6.3MaX
Author: ADC
Generation date: 27May2022
Pseudopotential type: PAW
Element: Am
Functional:  SLA  PW   PBX  PBC
    Suggested minimum cutoff for wavefunctions:  48. Ry
    Suggested minimum cutoff for charge density: 284. Ry
    The Pseudo was generated with a Scalar-Relativistic Calculation
    Local Potential by smoothing AE potential with Bessel fncs, cutoff radius:   2.1000
    Pseudopotential contains additional information for GIPAW reconstruction.
    Valence configuration:
    nl pn  l   occ       Rcut    Rcut US       E pseu
    6S  1  0  2.00      1.400      1.600    -3.971187
    7S  2  0  2.00      1.400      1.600    -0.327019
    6P  2  1  6.00      1.400      1.900    -1.862014
    6D  3  2  1.00      1.500      2.300    -0.154307
    5F  4  3  6.00      1.400      1.800    -0.440476
    Generation configuration:
    6S  1  0  2.00      1.400      1.600    -3.971229
    7S  2  0  2.00      1.400      1.600    -0.327027
    6P  2  1  6.00      1.400      1.900    -1.862045
    7P  3  1  0.00      1.400      1.900     5.000000
    6D  3  2  1.00      1.500      2.300    -0.154320
    6D  3  2  0.00      1.500      2.300     4.800000
    5F  4  3  6.00      1.400      1.800    -0.440528
    5F  4  3  0.00      1.400      1.800     3.100000
    Pseudization used: troullier-martins
]]>
    <PP_INPUTFILE><![CDATA[
 &input
   title='Am',
   zed=95.0,
   rel=1,
   config='[Rn] 6d1.0 7s2.0 7p0. 5f6.0',
   iswitch=3,
   dft='PBE'
 /
 &inputp
   lpaw=.true.,
   pseudotype=3,
   file_pseudopw='Am.pbe-spfn-kjpaw_psl.1.0.0.UPF',
   author='ADC',
   lloc=-1,
   rcloc=2.1,
   which_augfun='PSQ',
   rmatch_augfun_nc=.true.,
   nlcc=.true.,
   new_core_ps=.true.,
   rcore=1.1,
   tm=.true.
 /
8
6S  1  0  2.00  0.00  1.40  1.60  0.0
7S  2  0  2.00  0.00  1.40  1.60  0.0
6P  2  1  6.00  0.00  1.40  1.90  0.0
7P  3  1  0.00  5.00  1.40  1.90  0.0
6D  3  2  1.00  0.00  1.50  2.30  0.0
6D  3  2  0.00  4.80  1.50  2.30  0.0
5F  4  3  6.00  0.00  1.40  1.80  0.0
5F  4  3  0.00  3.10  1.40  1.80  0.0
]]></PP_INPUTFILE>
  </PP_INFO>
  <!--
 END OF HUMAN READABLE SECTION 
-->
  <PP_HEADER generated="Generated using &quot;atomic&quot; code by A. Dal Corso  v.6.3MaX" author="ADC" date="27May2022" comment="" element="Am" pseudo_type="PAW" relativistic="scalar" is_ultrasoft="true" is_paw="true" is_coulomb="false" has_so="false" has_wfc="true" has_gipaw="true" paw_as_gipaw="true" core_correction="true" functional=" SLA  PW   PBX  PBC" z_valence="1.700000000000e1" total_psenergy="-1.138920029037e3" wfc_cutoff="4.848059202922e1" rho_cutoff="2.843533326290e2" l_max="3" l_max_rho="6" l_local="-1" mesh_size="1293" number_of_wfc="5" number_of_proj="8"/>
  <PP_MESH dx="1.250000000000e-2" mesh="1293" xmin="-7.000000000000e0" rmax="1.000000000000e2" zmesh="9.500000000000e1">
    <PP_R>
      9.598757532152803e-6 9.719495038621286e-6 9.841751235964024e-6 9.965545226960568e-6
      1.009089635467389e-5 1.021782420547273e-5 1.034634861209199e-5 1.047648965673170e-5
      1.060826767419485e-5 1.074170325506479e-5 1.087681724892250e-5 1.101363076760441e-5
      1.115216518850116e-5 1.129244215789786e-5 1.143448359435640e-5 1.157831169214019e-5
      1.172394892468214e-5 1.187141804809613e-5 1.202074210473271e-5 1.217194442677956e-5
      1.232504863990710e-5 1.248007866696014e-5 1.263705873169580e-5 1.279601336256857e-5
      1.295696739656296e-5 1.311994598307420e-5 1.328497458783805e-5 1.345207899690973e-5
      1.362128532069314e-5 1.379261999802063e-5 1.396610980028412e-5 1.414178183561818e-5
      1.431966355313572e-5 1.449978274721702e-5 1.468216756185262e-5 1.486684649504086e-5
      1.505384840324078e-5 1.524320250588101e-5 1.543493838992529e-5 1.562908601449565e-5
      1.582567571555340e-5 1.602473821063928e-5 1.622630460367316e-5 1.643040638981402e-5
      1.663707546038123e-5 1.684634410783752e-5 1.705824503083481e-5 1.727281133932343e-5
      1.749007655972562e-5 1.771007464017412e-5 1.793283995581657e-5 1.815840731418676e-5
      1.838681196064337e-5 1.861808958387706e-5 1.885227632148705e-5 1.908940876562753e-5
      1.932952396872534e-5 1.957265944926949e-5 1.981885319767344e-5 2.006814368221133e-5
      2.032056985502852e-5 2.057617115822807e-5 2.083498753003365e-5 2.109705941102989e-5
      2.136242775048141e-5 2.163113401273115e-5 2.190322018367926e-5 2.217872877734352e-5
      2.245770284250219e-5 2.274018596942057e-5 2.302622229666195e-5 2.331585651798439e-5
      2.360913388932425e-5 2.390610023586745e-5 2.420680195920985e-5 2.451128604460751e-5
      2.481960006831824e-5 2.513179220503551e-5 2.544791123541583e-5 2.576800655370088e-5
      2.609212817543535e-5 2.642032674528210e-5 2.675265354493535e-5 2.708916050113368e-5
      2.742990019377367e-5 2.777492586412549e-5 2.812429142315212e-5 2.847805145993292e-5
      2.883626125019335e-5 2.919897676494198e-5 2.956625467921592e-5 2.993815238093650e-5
      3.031472797987624e-5 3.069604031673861e-5 3.108214897235207e-5 3.147311427697959e-5
      3.186899731974543e-5 3.226985995818046e-5 3.267576482788747e-5 3.308677535232822e-5
      3.350295575273333e-5 3.392437105813712e-5 3.435108711553840e-5 3.478317060018928e-5
      3.522068902601339e-5 3.566371075615486e-5 3.611230501366036e-5 3.656654189229530e-5
      3.702649236749609e-5 3.749222830746031e-5 3.796382248437611e-5 3.844134858579309e-5
      3.892488122613613e-5 3.941449595836400e-5 3.991026928577482e-5 4.041227867395962e-5
      4.092060256290663e-5 4.143532037925772e-5 4.195651254871885e-5 4.248426050862692e-5
      4.301864672067438e-5 4.355975468379407e-5 4.410766894720610e-5 4.466247512362884e-5
      4.522425990265621e-5 4.579311106430284e-5 4.636911749272007e-5 4.695236919008423e-5
      4.754295729065965e-5 4.814097407503866e-5 4.874651298456048e-5 4.935966863591169e-5
      4.998053683591030e-5 5.060921459647563e-5 5.124580014978698e-5 5.189039296363212e-5
      5.254309375694966e-5 5.320400451556646e-5 5.387322850813319e-5 5.455087030226026e-5
      5.523703578085668e-5 5.593183215867448e-5 5.663536799906127e-5 5.734775323092343e-5
      5.806909916590285e-5 5.879951851576948e-5 5.953912541003272e-5 6.028803541377457e-5
      6.104636554570675e-5 6.181423429645529e-5 6.259176164707468e-5 6.337906908779535e-5
      6.417627963700669e-5 6.498351786047896e-5 6.580090989082697e-5 6.662858344721839e-5
      6.746666785533034e-5 6.831529406755671e-5 6.917459468346960e-5 7.004470397053866e-5
      7.092575788511018e-5 7.181789409365081e-5 7.272125199425825e-5 7.363597273844222e-5
      7.456219925318026e-5 7.550007626324946e-5 7.644975031384096e-5 7.741136979345722e-5
      7.838508495709830e-5 7.937104794973974e-5 8.036941283010485e-5 8.138033559473758e-5
      8.240397420237658e-5 8.344048859863678e-5 8.449004074100170e-5 8.555279462412855e-5
      8.662891630547399e-5 8.771857393124010e-5 8.882193776264769e-5 8.993918020254050e-5
      9.107047582232248e-5 9.221600138923607e-5 9.337593589398166e-5 9.455046057868543e-5
      9.573975896521919e-5 9.694401688387517e-5 9.816342250240345e-5 9.939816635541277e-5
      1.006484413741422e-4 1.019144429166073e-4 1.031963687981245e-4 1.044944193222212e-4
      1.058087973119325e-4 1.071397081414934e-4 1.084873597684289e-4 1.098519627660474e-4
      1.112337303563437e-4 1.126328784433150e-4 1.140496256466963e-4 1.154841933361209e-4
      1.169368056657085e-4 1.184076896090912e-4 1.198970749948777e-4 1.214051945425644e-4
      1.229322838988995e-4 1.244785816747012e-4 1.260443294821434e-4 1.276297719725063e-4
      1.292351568744046e-4 1.308607350324957e-4 1.325067604466736e-4 1.341734903117586e-4
      1.358611850576829e-4 1.375701083901840e-4 1.393005273320099e-4 1.410527122646403e-4
      1.428269369705362e-4 1.446234786759173e-4 1.464426180940802e-4 1.482846394692604e-4
      1.501498306210448e-4 1.520384829893461e-4 1.539508916799392e-4 1.558873555105726e-4
      1.578481770576602e-4 1.598336627035573e-4 1.618441226844361e-4 1.638798711387588e-4
      1.659412261563630e-4 1.680285098281644e-4 1.701420482964829e-4 1.722821718060045e-4
      1.744492147553816e-4 1.766435157494838e-4 1.788654176523061e-4 1.811152676405409e-4
      1.833934172578265e-4 1.857002224696754e-4 1.880360437190951e-4 1.904012459829085e-4
      1.927961988287808e-4 1.952212764729672e-4 1.976768578387833e-4 2.001633266158132e-4
      2.026810713198624e-4 2.052304853536631e-4 2.078119670683451e-4 2.104259198256782e-4
      2.130727520610989e-4 2.157528773475290e-4 2.184667144599973e-4 2.212146874410740e-4
      2.239972256671281e-4 2.268147639154186e-4 2.296677424320292e-4 2.325566070006573e-4
      2.354818090122695e-4 2.384438055356313e-4 2.414430593887256e-4 2.444800392110692e-4
      2.475552195369379e-4 2.506690808695145e-4 2.538221097559672e-4 2.570147988634740e-4
      2.602476470562042e-4 2.635211594732647e-4 2.668358476076309e-4 2.701922293860677e-4
      2.735908292500564e-4 2.770321782377401e-4 2.805168140668998e-4 2.840452812189735e-4
      2.876181310241324e-4 2.912359217474271e-4 2.948992186760191e-4 2.986085942075063e-4
      3.023646279393625e-4 3.061679067594997e-4 3.100190249379715e-4 3.139185842198286e-4
      3.178671939191422e-4 3.218654710142115e-4 3.259140402439673e-4 3.300135342055883e-4
      3.341645934533469e-4 3.383678665986954e-4 3.426240104116151e-4 3.469336899232355e-4
      3.512975785297482e-4 3.557163580976269e-4 3.601907190701688e-4 3.647213605753792e-4
      3.693089905352109e-4 3.739543257761786e-4 3.786580921413649e-4 3.834210246038341e-4
      3.882438673814739e-4 3.931273740532802e-4 3.980723076771061e-4 4.030794409088912e-4
      4.081495561233897e-4 4.132834455364192e-4 4.184819113286455e-4 4.237457657709248e-4
      4.290758313512234e-4 4.344729409031322e-4 4.399379377359992e-4 4.454716757666982e-4
      4.510750196530546e-4 4.567488449289513e-4 4.624940381411307e-4 4.683114969877212e-4
      4.742021304585034e-4 4.801668589769410e-4 4.862066145440012e-4 4.923223408837788e-4
      4.985149935909572e-4 5.047855402801207e-4 5.111349607369472e-4 5.175642470713009e-4
      5.240744038722520e-4 5.306664483650461e-4 5.373414105700465e-4 5.441003334636781e-4
      5.509442731413934e-4 5.578742989826926e-4 5.648914938182120e-4 5.719969540989210e-4
      5.791917900674449e-4 5.864771259315410e-4 5.938541000397617e-4 6.013238650593188e-4
      6.088875881561946e-4 6.165464511775110e-4 6.243016508361972e-4 6.321543988979784e-4
      6.401059223707155e-4 6.481574636961287e-4 6.563102809439312e-4 6.645656480084040e-4
      6.729248548074480e-4 6.813892074841322e-4 6.899600286107828e-4 6.986386573956383e-4
      7.074264498921026e-4 7.163247792106336e-4 7.253350357332904e-4 7.344586273309860e-4
      7.436969795834697e-4 7.530515360020759e-4 7.625237582552785e-4 7.721151263970750e-4
      7.818271390982514e-4 7.916613138805518e-4 8.016191873537927e-4 8.117023154559655e-4
      8.219122736963492e-4 8.322506574016913e-4 8.427190819654797e-4 8.533191831003498e-4
      8.640526170936715e-4 8.749210610663429e-4 8.859262132348464e-4 8.970697931765987e-4
      9.083535420986367e-4 9.197792231096882e-4 9.313486214956558e-4 9.430635449985761e-4
      9.549258240990795e-4 9.669373123024092e-4 9.790998864280366e-4 9.914154469029127e-4
      1.003885918058417e-3 1.016513248431041e-3 1.029299411066843e-3 1.042246403829751e-3
      1.055356249713724e-3 1.068630997158854e-3 1.082072720371436e-3 1.095683519648070e-3
      1.109465521703835e-3 1.123420880004592e-3 1.137551775103467e-3 1.151860414981568e-3
      1.166349035392989e-3 1.181019900214145e-3 1.195875301797513e-3 1.210917561329815e-3
      1.226149029194705e-3 1.241572085340027e-3 1.257189139649680e-3 1.273002632320176e-3
      1.289015034241915e-3 1.305228847385277e-3 1.321646605191551e-3 1.338270872968796e-3
      1.355104248292676e-3 1.372149361412334e-3 1.389408875661371e-3 1.406885487874005e-3
      1.424581928806450e-3 1.442500963563605e-3 1.460645392031108e-3 1.479018049312823e-3
      1.497621806173828e-3 1.516459569488982e-3 1.535534282697131e-3 1.554848926261019e-3
      1.574406518133001e-3 1.594210114226597e-3 1.614262808893984e-3 1.634567735409506e-3
      1.655128066459238e-3 1.675947014636741e-3 1.697027832945020e-3 1.718373815304826e-3
      1.739988297069332e-3 1.761874655545290e-3 1.784036310520739e-3 1.806476724799357e-3
      1.829199404741528e-3 1.852207900812226e-3 1.875505808135773e-3 1.899096767057588e-3
      1.922984463712998e-3 1.947172630603203e-3 1.971665047178495e-3 1.996465540428793e-3
      2.021577985481624e-3 2.047006306207618e-3 2.072754475833622e-3 2.098826517563528e-3
      2.125226505206900e-3 2.151958563815517e-3 2.179026870327924e-3 2.206435654222083e-3
      2.234189198176243e-3 2.262291838738112e-3 2.290747967002453e-3 2.319562029297200e-3
      2.348738527878209e-3 2.378282021632746e-3 2.408197126791816e-3 2.438488517651462e-3
      2.469160927303135e-3 2.500219148373244e-3 2.531668033772023e-3 2.563512497451797e-3
      2.595757515174806e-3 2.628408125290671e-3 2.661469429523647e-3 2.694946593769791e-3
      2.728844848904122e-3 2.763169491597973e-3 2.797925885146598e-3 2.833119460307199e-3
      2.868755716147502e-3 2.904840220904981e-3 2.941378612856921e-3 2.978376601201400e-3
      3.015839966949369e-3 3.053774563827951e-3 3.092186319195083e-3 3.131081234965692e-3
      3.170465388549498e-3 3.210344933800624e-3 3.250726101979157e-3 3.291615202724778e-3
      3.333018625042667e-3 3.374942838301799e-3 3.417394393245787e-3 3.460379923016465e-3
      3.503906144190312e-3 3.547979857827942e-3 3.592607950536778e-3 3.637797395547100e-3
      3.683555253801636e-3 3.729888675058830e-3 3.776804899010019e-3 3.824311256410647e-3
      3.872415170225708e-3 3.921124156789610e-3 3.970445826980601e-3 4.020387887409990e-3
      4.070958141626332e-3 4.122164491334726e-3 4.174014937631505e-3 4.226517582254386e-3
      4.279680628848414e-3 4.333512384247777e-3 4.388021259773772e-3 4.443215772549111e-3
      4.499104546828703e-3 4.555696315347237e-3 4.612999920683681e-3 4.671024316642947e-3
      4.729778569654965e-3 4.789271860191302e-3 4.849513484199642e-3 4.910512854556303e-3
      4.972279502536997e-3 5.034823079306149e-3 5.098153357424869e-3 5.162280232377961e-3
      5.227213724120104e-3 5.292963978641484e-3 5.359541269553150e-3 5.426955999692256e-3
      5.495218702747541e-3 5.564340044905239e-3 5.634330826515688e-3 5.705201983780918e-3
      5.776964590463438e-3 5.849629859616544e-3 5.923209145336381e-3 5.997713944536032e-3
      6.073155898741965e-3 6.149546795913010e-3 6.226898572282268e-3 6.305223314222166e-3
      6.384533260132984e-3 6.464840802355136e-3 6.546158489105478e-3 6.628499026438003e-3
      6.711875280229197e-3 6.796300278188338e-3 6.881787211893132e-3 6.968349438850886e-3
      7.056000484585681e-3 7.144754044751735e-3 7.234623987273392e-3 7.325624354512023e-3
      7.417769365460146e-3 7.511073417963187e-3 7.605551090969186e-3 7.701217146806756e-3
      7.798086533491768e-3 7.896174387062969e-3 7.995496033947042e-3 8.096066993353379e-3
      8.197902979698998e-3 8.301019905063967e-3 8.405433881677654e-3 8.511161224436346e-3
      8.618218453452448e-3 8.726622296635794e-3 8.836389692307447e-3 8.947537791846301e-3
      9.060083962369035e-3 9.174045789443774e-3 9.289441079837847e-3 9.406287864300166e-3
      9.524604400378525e-3 9.644409175272401e-3 9.765720908721615e-3 9.888558555931324e-3
      1.001294131053383e-2 1.013888860758760e-2 1.026642012661403e-2 1.039555579467244e-2
      1.052631578947368e-2 1.065872054253300e-2 1.079279074236241e-2 1.092854733770343e-2
      1.106601154080026e-2 1.120520483071431e-2 1.134614895668033e-2 1.148886594150476e-2
      1.163337808500682e-2 1.177970796750296e-2 1.192787845333501e-2 1.207791269444287e-2
      1.222983413398193e-2 1.238366650998622e-2 1.253943385907746e-2 1.269716052022085e-2
      1.285687113852811e-2 1.301859066910827e-2 1.318234438096700e-2 1.334815786095495e-2
      1.351605701776570e-2 1.368606808598412e-2 1.385821763018550e-2 1.403253254908635e-2
      1.420904007974741e-2 1.438776780182943e-2 1.456874364190265e-2 1.475199587781025e-2
      1.493755314308693e-2 1.512544443143290e-2 1.531569910124422e-2 1.550834688020017e-2
      1.570341786990812e-2 1.590094255060709e-2 1.610095178593031e-2 1.630347682772772e-2
      1.650854932094915e-2 1.671620130858888e-2 1.692646523669246e-2 1.713937395942644e-2
      1.735496074421188e-2 1.757325927692256e-2 1.779430366714833e-2 1.801812845352490e-2
      1.824476860913049e-2 1.847425954695051e-2 1.870663712541093e-2 1.894193765398115e-2
      1.918019789884747e-2 1.942145508865790e-2 1.966574692033918e-2 1.991311156498705e-2
      2.016358767383049e-2 2.041721438427111e-2 2.067403132599841e-2 2.093407862718202e-2
      2.119739692074186e-2 2.146402735069701e-2 2.173401157859461e-2 2.200739179001955e-2
      2.228421070118605e-2 2.256451156561221e-2 2.284833818087835e-2 2.313573489547056e-2
      2.342674661571020e-2 2.372141881277062e-2 2.401979752978215e-2 2.432192938902636e-2
      2.462786159922097e-2 2.493764196289623e-2 2.525131888386420e-2 2.556894137478198e-2
      2.589055906481001e-2 2.621622220736666e-2 2.654598168798052e-2 2.687988903224134e-2
      2.721799641385102e-2 2.756035666277581e-2 2.790702327350114e-2 2.825805041339024e-2
      2.861349293114785e-2 2.897340636539060e-2 2.933784695332475e-2 2.970687163953368e-2
      3.008053808487543e-2 3.045890467549222e-2 3.084203053193373e-2 3.122997551839441e-2
      3.162280025206771e-2 3.202056611261753e-2 3.242333525176875e-2 3.283117060301890e-2
      3.324413589147125e-2 3.366229564379236e-2 3.408571519829435e-2 3.451446071514393e-2
      3.494859918670054e-2 3.538819844798348e-2 3.583332718727177e-2 3.628405495683660e-2
      3.674045218380886e-2 3.720259018118393e-2 3.767054115896400e-2 3.814437823544148e-2
      3.862417544862365e-2 3.911000776780110e-2 3.960195110526226e-2 4.010008232815434e-2
      4.060447927049445e-2 4.111522074533110e-2 4.163238655705871e-2 4.215605751388767e-2
      4.268631544047027e-2 4.322324319068644e-2 4.376692466058959e-2 4.431744480151536e-2
      4.487488963335602e-2 4.543934625800047e-2 4.601090287294481e-2 4.658964878507303e-2
      4.717567442461121e-2 4.776907135925797e-2 4.836993230849147e-2 4.897835115805757e-2
      4.959442297463942e-2 5.021824402071161e-2 5.084991176958193e-2 5.148952492062111e-2
      5.213718341468541e-2 5.279298844973224e-2 5.345704249663243e-2 5.412944931518203e-2
      5.481031397031422e-2 5.549974284851674e-2 5.619784367445453e-2 5.690472552780176e-2
      5.762049886028637e-2 5.834527551294762e-2 5.907916873361216e-2 5.982229319458892e-2
      6.057476501058664e-2 6.133670175685769e-2 6.210822248756861e-2 6.288944775440339e-2
      6.368049962539946e-2 6.448150170402091e-2 6.529257914847233e-2 6.611385869125439e-2
      6.694546865896662e-2 6.778753899235856e-2 6.864020126663277e-2 6.950358871200457e-2
      7.037783623451865e-2 7.126308043712919e-2 7.215945964104403e-2 7.306711390733723e-2
      7.398618505883475e-2 7.491681670227366e-2 7.585915425074175e-2 7.681334494639829e-2
      7.777953788348054e-2 7.875788403160090e-2 7.974853625933525e-2 8.075164935810976e-2
      8.176738006638713e-2 8.279588709415675e-2 8.383733114773452e-2 8.489187495487236e-2
      8.595968329018575e-2 8.704092300089973e-2 8.813576303291859e-2 8.924437445722507e-2
      9.036693049660943e-2 9.150360655273687e-2 9.265458023355382e-2 9.382003138103933e-2
      9.500014209930663e-2 9.619509678305608e-2 9.740508214638831e-2 9.863028725197827e-2
      9.987090354061607e-2 1.011271248611212e-1 1.023991475006304e-1 1.036871702152693e-1
      1.049913942612076e-1 1.063120234261058e-1 1.076492640609580e-1 1.090033251123336e-1
      1.103744181550271e-1 1.117627574251159e-1 1.131685598534353e-1 1.145920450994752e-1
      1.160334355857011e-1 1.174929565323091e-1 1.189708359924167e-1 1.204673048876960e-1
      1.219825970444569e-1 1.235169492301812e-1 1.250706011905199e-1 1.266437956867530e-1
      1.282367785337208e-1 1.298497986382344e-1 1.314831080379665e-1 1.331369619408339e-1
      1.348116187648741e-1 1.365073401786224e-1 1.382243911420003e-1 1.399630399477136e-1
      1.417235582631759e-1 1.435062211729554e-1 1.453113072217589e-1 1.471390984579542e-1
      1.489898804776401e-1 1.508639424692731e-1 1.527615772588518e-1 1.546830813556731e-1
      1.566287549986616e-1 1.585989022032820e-1 1.605938308090440e-1 1.626138525276003e-1
      1.646592829914544e-1 1.667304418032782e-1 1.688276525858492e-1 1.709512430326195e-1
      1.731015449589164e-1 1.752788943537910e-1 1.774836314325163e-1 1.797161006897459e-1
      1.819766509533438e-1 1.842656354388873e-1 1.865834118048594e-1 1.889303422085332e-1
      1.913067933625586e-1 1.937131365922639e-1 1.961497478936739e-1 1.986170079922619e-1
      2.011153024024386e-1 2.036450214877875e-1 2.062065605220634e-1 2.088003197509509e-1
      2.114267044546070e-1 2.140861250109856e-1 2.167789969599582e-1 2.195057410682467e-1
      2.222667833951645e-1 2.250625553591931e-1 2.278934938053903e-1 2.307600410736470e-1
      2.336626450678070e-1 2.366017593256487e-1 2.395778430897550e-1 2.425913613792695e-1
      2.456427850625550e-1 2.487325909307710e-1 2.518612617723700e-1 2.550292864485366e-1
      2.582371599695723e-1 2.614853835722405e-1 2.647744647980884e-1 2.681049175727483e-1
      2.714772622862427e-1 2.748920258742947e-1 2.783497419006611e-1 2.818509506405069e-1
      2.853961991648201e-1 2.889860414258958e-1 2.926210383438915e-1 2.963017578944701e-1
      3.000287751975507e-1 3.038026726071688e-1 3.076240398024730e-1 3.114934738798630e-1
      3.154115794462844e-1 3.193789687137048e-1 3.233962615947678e-1 3.274640857996596e-1
      3.315830769341891e-1 3.357538785991000e-1 3.399771424906392e-1 3.442535285023808e-1
      3.485837048283401e-1 3.529683480673786e-1 3.574081433289216e-1 3.619037843400129e-1
      3.664559735537058e-1 3.710654222588267e-1 3.757328506911148e-1 3.804589881457572e-1
      3.852445730913478e-1 3.900903532852694e-1 3.949970858905369e-1 3.999655375941032e-1
      4.049964847266541e-1 4.100907133839160e-1 4.152490195494795e-1 4.204722092191783e-1
      4.257610985270256e-1 4.311165138727348e-1 4.365392920508507e-1 4.420302803814948e-1
      4.475903368427661e-1 4.532203302047996e-1 4.589211401655106e-1 4.646936574880557e-1
      4.705387841400091e-1 4.764574334343028e-1 4.824505301719317e-1 4.885190107864524e-1
      4.946638234903090e-1 5.008859284229863e-1 5.071862978010402e-1 5.135659160700047e-1
      5.200257800582126e-1 5.265668991325559e-1 5.331902953561965e-1 5.398970036482705e-1
      5.466880719455947e-1 5.535645613664047e-1 5.605275463761652e-1 5.675781149554481e-1
      5.747173687699393e-1 5.819464233425736e-1 5.892664082278332e-1 5.966784671882513e-1
      6.041837583731184e-1 6.117834544994524e-1 6.194787430352364e-1 6.272708263849578e-1
      6.351609220774953e-1 6.431502629563512e-1 6.512400973722935e-1 6.594316893784097e-1
      6.677263189276141e-1 6.761252820726521e-1 6.846298911686002e-1 6.932414750779337e-1
      7.019613793781602e-1 7.107909665720648e-1 7.197316163006128e-1 7.287847255585120e-1
      7.379517089125037e-1 7.472339987223888e-1 7.566330453648323e-1 7.661503174599973e-1
      7.757873021010089e-1 7.855455050863254e-1 7.954264511550177e-1 8.054316842250094e-1
      8.155627676343260e-1 8.258212843853595e-1 8.362088373922244e-1 8.467270497312139e-1
      8.573775648944014e-1 8.681620470464539e-1 8.790821812846449e-1 8.901396739021685e-1
      9.013362526547438e-1 9.126736670305780e-1 9.241536885237361e-1 9.357781109109297e-1
      9.475487505318085e-1 9.594674465727627e-1 9.715360613542934e-1 9.837564806220184e-1
      9.961306138413068e-1 1.008660394495651e0 1.021347780388773e0 1.034194753950527e0
      1.047203322546673e0 1.060375518792517e0 1.073713400870523e0 1.087219052851904e0
      1.100894585022255e0 1.114742134211306e0 1.128763864126785e0 1.142961965692522e0
      1.157338657390775e0 1.171896185608867e0 1.186636824990204e0 1.201562878789674e0
      1.216676679233554e0 1.231980587883915e0 1.247476996007614e0 1.263168324949953e0
      1.279057026513000e0 1.295145583338700e0 1.311436509296794e0 1.327932349877602e0
      1.344635682589779e0 1.361549117363042e0 1.378675296955985e0 1.396016897369017e0
      1.413576628262479e0 1.431357233380054e0 1.449361490977460e0 1.467592214256581e0
      1.486052251805021e0 1.504744488041200e0 1.523671843665065e0 1.542837276114434e0
      1.562243780027122e0 1.581894387708853e0 1.601792169607049e0 1.621940234790620e0
      1.642341731435738e0 1.662999847317763e0 1.683917810309334e0 1.705098888884719e0
      1.726546392630547e0 1.748263672762906e0 1.770254122651005e0 1.792521178347380e0
      1.815068319124783e0 1.837899068019836e0 1.861016992383499e0 1.884425704438491e0
      1.908128861843699e0 1.932130168265684e0 1.956433373957414e0 1.981042276344216e0
      2.005960720617158e0 2.031192600333859e0 2.056741858026852e0 2.082612485819639e0
      2.108808526050440e0 2.135334071903841e0 2.162193268050351e0 2.189390311294007e0
      2.216929451228155e0 2.244814990899432e0 2.273051287480148e0 2.301642752949097e0
      2.330593854780918e0 2.359909116644182e0 2.389593119108190e0 2.419650500358725e0
      2.450085956922761e0 2.480904244402301e0 2.512110178217472e0 2.543708634358913e0
      2.575704550149688e0 2.608102925016740e0 2.640908821272048e0 2.674127364903656e0
      2.707763746376579e0 2.741823221443861e0 2.776311111967781e0 2.811232806751391e0
      2.846593762380558e0 2.882399504076532e0 2.918655626559305e0 2.955367794921785e0
      2.992541745514957e0 3.030183286844246e0 3.068298300477054e0 3.106892741961814e0
      3.145972641758533e0 3.185544106181051e0 3.225613318351206e0 3.266186539164909e0
      3.307270108270465e0 3.348870445059137e0 3.390994049668174e0 3.433647503996509e0
      3.476837472733147e0 3.520570704398579e0 3.564854032399237e0 3.609694376095204e0
      3.655098741881422e0 3.701074224282408e0 3.747628007060833e0 3.794767364339976e0
      3.842499661740304e0 3.890832357530413e0 3.939773003792339e0 3.989329247601637e0
      4.039508832222234e0 4.090319598316303e0 4.141769485169436e0 4.193866531931115e0
      4.246618878870896e0 4.300034768650321e0 4.354122547610830e0 4.408890667077940e0
      4.464347684681733e0 4.520502265694041e0 4.577363184382407e0 4.634939325381041e0
      4.693239685079132e0 4.752273373026479e0 4.812049613356937e0 4.872577746229680e0
      4.933867229288600e0 4.995927639140136e0 5.058768672849572e0 5.122400149456286e0
      5.186832011507966e0 5.252074326614126e0 5.318137289019258e0 5.385031221195623e0
      5.452766575456232e0 5.521353935588005e0 5.590804018505485e0 5.661127675925447e0
      5.732335896062415e0 5.804439805345671e0 5.877450670157748e0 5.951379898594792e0
      6.026239042249178e0 6.102039798014383e0 6.178794009912725e0 6.256513670945981e0
      6.335210924969287e0 6.414898068588717e0 6.495587553082565e0 6.577291986346957e0
      6.660024134865832e0 6.743796925705693e0 6.828623448535568e0 6.914516957672208e0
      7.001490874151177e0 7.089558787823889e0 7.178734459481006e0 7.269031823002678e0
      7.360464987535640e0 7.453048239697888e0 7.546796045810946e0 7.641723054160225e0
      7.737844097283936e0 7.835174194290600e0 7.933728553205908e0 8.033522573348964e0
      8.134571847738421e0 8.236892165529017e0 8.340499514478548e0 8.445410083446095e0
      8.551640264921515e0 8.659206657586763e0 8.768126068909567e0 8.878415517769511e0
      8.990092237117384e0 9.103173676667808e0 9.217677505625748e0 9.333621615447464e0
      9.451024122635983e0 9.569903371571918e0 9.690277937379800e0 9.812166628830404e0
      9.935588491279786e0 1.006056280964503e1 1.018710911141765e1 1.031524716971478e1
      1.044499700636870e1 1.057637889505539e1 1.070941336446222e1 1.084412120149572e1
      1.098052345452952e1 1.111864143669311e1 1.125849672920225e1 1.140011118473091e1
      1.154350693082588e1 1.168870637336426e1 1.183573220005432e1 1.198460738398064e1
      1.213535518719357e1 1.228799916434406e1 1.244256316636413e1 1.259907134419351e1
      1.275754815255346e1 1.291801835376765e1 1.308050702163154e1 1.324503954533007e1
      1.341164163340478e1 1.358033931777093e1 1.375115895778487e1 1.392412724436292e1
      1.409927120415178e1 1.427661820375146e1 1.445619595399150e1 1.463803251426069e1
      1.482215629689153e1 1.500859607159971e1 1.519738096997927e1 1.538854049005473e1
      1.558210450088996e1 1.577810324725550e1 1.597656735435424e1 1.617752783260666e1
      1.638101608249638e1 1.658706389947640e1 1.679570347893736e1 1.700696742123806e1
      1.722088873679923e1 1.743750085126174e1 1.765683761070909e1 1.787893328695623e1
      1.810382258290447e1 1.833154063796376e1 1.856212303354358e1 1.879560579861228e1
      1.903202541532698e1 1.927141882473381e1 1.951382343253998e1 1.975927711495870e1
      2.000781822462717e1 2.025948559659944e1 2.051431855441447e1 2.077235691624030e1
      2.103364100109601e1 2.129821163515138e1 2.156611015810630e1 2.183737842965003e1
      2.211205883600187e1 2.239019429653420e1 2.267182827047852e1 2.295700476371631e1
      2.324576833565485e1 2.353816410618968e1 2.383423776275492e1 2.413403556746167e1
      2.443760436432692e1 2.474499158659282e1 2.505624526413817e1 2.537141403098341e1
      2.569054713288948e1 2.601369443505290e1 2.634090642989711e1 2.667223424496194e1
      2.700772965089267e1 2.734744506952896e1 2.769143358209617e1 2.803974893749929e1
      2.839244556072116e1 2.874957856132682e1 2.911120374207411e1 2.947737760763330e1
      2.984815737341593e1 3.022360097451465e1 3.060376707475609e1 3.098871507586674e1
      3.137850512675504e1 3.177319813290951e1 3.217285576591526e1 3.257754047309068e1
      3.298731548724448e1 3.340224483655638e1 3.382239335458145e1 3.424782669038030e1
      3.467861131877732e1 3.511481455074704e1 3.555650454393195e1 3.600375031329218e1