<?xml version="1.0" encoding="UTF-8"?>
<UPF version="2.0.1">
  <PP_INFO><![CDATA[
Generated using "atomic" code by A. Dal Corso  v.6.3MaX
Author: ADC
Generation date: 27May2022
Pseudopotential type: PAW
Element: In
Functional:  SLA  PW   PBX  PBC
    Suggested minimum cutoff for wavefunctions:  41. Ry
    Suggested minimum cutoff for charge density: 212. Ry
    The Pseudo was generated with a Scalar-Relativistic Calculation
    Local Potential by smoothing AE potential with Bessel fncs, cutoff radius:   1.9000
    Pseudopotential contains additional information for GIPAW reconstruction.
    Valence configuration:
    nl pn  l   occ       Rcut    Rcut US       E pseu
    5S  1  0  2.00      1.800      2.000    -0.603498
    5P  2  1  1.00      1.900      2.500    -0.185108
    4D  3  2 10.00      1.400      1.700    -1.368791
    Generation configuration:
    5S  1  0  2.00      1.800      2.000    -0.603495
    5S  1  0  0.00      1.800      2.000     3.000000
    5P  2  1  1.00      1.900      2.500    -0.185107
    5P  2  1  0.00      1.900      2.500     6.000000
    4D  3  2 10.00      1.400      1.700    -1.368785
    4D  3  2  0.00      1.400      1.700     5.000000
    Pseudization used: troullier-martins
]]>
    <PP_INPUTFILE><![CDATA[
 &input
   title='In',
   zed=49.,
   rel=1,
   config='[Kr] 5s2 5p1 4d10',
   iswitch=3,
   dft='PBE'
 /
 &inputp
   lpaw=.true.,
   pseudotype=3,
   file_pseudopw='In.pbe-dn-kjpaw_psl.1.0.0.UPF',
   author='ADC',
   lloc=-1,
   rcloc=1.9,
   which_augfun='PSQ',
   rmatch_augfun_nc=.true.,
   nlcc=.true.,
   new_core_ps=.true.,
   rcore=1.2,
   tm=.true.
 /
6
5S  1  0  2.00  0.00  1.80  2.00  0.0
5S  1  0  0.00  3.00  1.80  2.00  0.0
5P  2  1  1.00  0.00  1.90  2.50  0.0
5P  2  1  0.00  6.00  1.90  2.50  0.0
4D  3  2 10.00  0.00  1.40  1.70  0.0
4D  3  2  0.00  5.00  1.40  1.70  0.0
]]></PP_INPUTFILE>
  </PP_INFO>
  <!--
 END OF HUMAN READABLE SECTION 
-->
  <PP_HEADER generated="Generated using &quot;atomic&quot; code by A. Dal Corso  v.6.3MaX" author="ADC" date="27May2022" comment="" element="In" pseudo_type="PAW" relativistic="scalar" is_ultrasoft="true" is_paw="true" is_coulomb="false" has_so="false" has_wfc="true" has_gipaw="true" paw_as_gipaw="true" core_correction="true" functional=" SLA  PW   PBX  PBC" z_valence="1.300000000000e1" total_psenergy="-4.105863577406e2" wfc_cutoff="4.079141206467e1" rho_cutoff="2.124853980679e2" l_max="2" l_max_rho="4" l_local="-1" mesh_size="1241" number_of_wfc="3" number_of_proj="6"/>
  <PP_MESH dx="1.250000000000e-2" mesh="1241" xmin="-7.000000000000e0" rmax="1.000000000000e2" zmesh="4.900000000000e1">
    <PP_R>
      1.860983603172482e-5 1.884391895242903e-5 1.908094627380780e-5 1.932095503186233e-5
      1.956398272844939e-5 1.981006733714100e-5 2.005924730915793e-5 2.031156157937778e-5
      2.056704957241858e-5 2.082575120879907e-5 2.108770691117626e-5 2.135295761066160e-5
      2.162154475321653e-5 2.189351030612851e-5 2.216889676456853e-5 2.244774715823099e-5
      2.273010505805721e-5 2.301601458304352e-5 2.330552040713485e-5 2.359866776620526e-5
      2.389550246512601e-5 2.419607088492271e-5 2.450041999002246e-5 2.480859733559214e-5
      2.512065107496900e-5 2.543662996718469e-5 2.575658338458396e-5 2.608056132053927e-5
      2.640861439726220e-5 2.674079387371347e-5 2.707715165361207e-5 2.741774029354545e-5
      2.776261301118150e-5 2.811182369358402e-5 2.846542690563263e-5 2.882347789854860e-5
      2.918603261852804e-5 2.955314771548359e-5 2.992488055189598e-5 3.030128921177728e-5
      3.068243250974637e-5 3.106837000021901e-5 3.145916198671328e-5 3.185486953127209e-5
      3.225555446400443e-5 3.266127939274621e-5 3.307210771284300e-5 3.348810361705563e-5
      3.390933210559049e-5 3.433585899625594e-5 3.476775093474640e-5 3.520507540505596e-5
      3.564790074002286e-5 3.609629613200655e-5 3.655033164369938e-5 3.701007821907378e-5
      3.747560769446749e-5 3.794699280980818e-5 3.842430721997913e-5 3.890762550632810e-5
      3.939702318832060e-5 3.989257673534015e-5 4.039436357863667e-5 4.090246212342530e-5
      4.141695176113743e-5 4.193791288182569e-5 4.246542688672508e-5 4.299957620097214e-5
      4.354044428648383e-5 4.408811565499906e-5 4.464267588128338e-5 4.520421161650034e-5
      4.577281060175109e-5 4.634856168178381e-5 4.693155481887624e-5 4.752188110689212e-5
      4.811963278551496e-5 4.872490325466067e-5 4.933778708907149e-5 4.995838005309353e-5
      5.058677911563997e-5 5.122308246534281e-5 5.186738952589507e-5 5.251980097158571e-5
      5.318041874303058e-5 5.384934606310044e-5 5.452668745305001e-5 5.521254874884952e-5
      5.590703711772180e-5 5.661026107488753e-5 5.732233050052066e-5 5.804335665691770e-5
      5.877345220588252e-5 5.951273122632995e-5 6.026130923211116e-5 6.101930319006246e-5
      6.178683153828195e-5 6.256401420463559e-5 6.335097262549607e-5 6.414782976471796e-5
      6.495471013285035e-5 6.577173980659237e-5 6.659904644849281e-5 6.743675932689762e-5
      6.828500933614841e-5 6.914392901703494e-5 7.001365257750480e-5 7.089431591363374e-5
      7.178605663085975e-5 7.268901406548427e-5 7.360332930644348e-5 7.452914521735394e-5
      7.546660645883535e-5 7.641585951111390e-5 7.737705269691037e-5 7.835033620461560e-5
      7.933586211175778e-5 8.033378440876497e-5 8.134425902302635e-5 8.236744384325629e-5
      8.340349874416464e-5 8.445258561143747e-5 8.551486836703223e-5 8.659051299479062e-5
      8.767968756637428e-5 8.878256226752590e-5 8.989930942466135e-5 9.103010353179595e-5
      9.217512127780951e-5 9.333454157405454e-5 9.450854558231114e-5 9.569731674309411e-5
      9.690104080431585e-5 9.811990585030992e-5 9.935410233121965e-5 1.006038230927562e-4
      1.018692634063310e-4 1.031506209995676e-4 1.044480960871970e-4 1.057618914023413e-4
      1.070922122281915e-4 1.084392664300832e-4 1.098032644879759e-4 1.111844195293413e-4
      1.125829473624647e-4 1.139990665101653e-4 1.154329982439410e-4 1.168849666185426e-4
      1.183551985069825e-4 1.198439236359848e-4 1.213513746218795e-4 1.228777870069502e-4
      1.244233992962375e-4 1.259884529948061e-4 1.275731926454808e-4 1.291778658670561e-4
      1.308027233929874e-4 1.324480191105691e-4 1.341140101006043e-4 1.358009566775750e-4
      1.375091224303157e-4 1.392387742632005e-4 1.409901824378476e-4 1.427636206153471e-4
      1.445593658990230e-4 1.463776988777286e-4 1.482189036696917e-4 1.500832679669069e-4
      1.519710830800885e-4 1.538826439841893e-4 1.558182493644890e-4 1.577782016632668e-4
      1.597628071270566e-4 1.617723758544999e-4 1.638072218447992e-4 1.658676630467798e-4
      1.679540214085721e-4 1.700666229279145e-4 1.722057977030925e-4 1.743718799845173e-4
      1.765652082269517e-4 1.787861251423965e-4 1.810349777536379e-4 1.833121174484718e-4
      1.856179000346087e-4 1.879526857952682e-4 1.903168395454760e-4 1.927107306890655e-4
      1.951347332763981e-4 1.975892260628101e-4 2.000745925677924e-4 2.025912211349186e-4
      2.051395049925222e-4 2.077198423151402e-4 2.103326362857296e-4 2.129782951586634e-4
      2.156572323235236e-4 2.183698663696924e-4 2.211166211517582e-4 2.238979258557447e-4
      2.267142150661695e-4 2.295659288339524e-4 2.324535127451710e-4 2.353774179906861e-4
      2.383381014366419e-4 2.413360256958494e-4 2.443716592000739e-4 2.474454762732266e-4
      2.505579572054783e-4 2.537095883283080e-4 2.569008620904898e-4 2.601322771350422e-4
      2.634043383771402e-4 2.667175570830098e-4 2.700724509498151e-4 2.734695441865475e-4
      2.769093675959374e-4 2.803924586573907e-4 2.839193616109719e-4 2.874906275424436e-4
      2.911068144693725e-4 2.947684874283240e-4 2.984762185631474e-4 3.022305872143755e-4
      3.060321800097493e-4 3.098815909558764e-4 3.137794215310497e-4 3.177262807792263e-4
      3.217227854051936e-4 3.257695598709311e-4 3.298672364931811e-4 3.340164555422536e-4
      3.382178653420664e-4 3.424721223714482e-4 3.467798913667159e-4 3.511418454255384e-4
      3.555586661121125e-4 3.600310435636564e-4 3.645596765982456e-4 3.691452728240064e-4
      3.737885487496771e-4 3.784902298965691e-4 3.832510509119268e-4 3.880717556837194e-4
      3.929530974568761e-4 3.978958389509795e-4 4.029007524794445e-4 4.079686200701925e-4
      4.131002335878447e-4 4.182963948574542e-4 4.235579157897906e-4 4.288856185082047e-4
      4.342803354770853e-4 4.397429096319342e-4 4.452741945110771e-4 4.508750543890294e-4
      4.565463644115430e-4 4.622890107323464e-4 4.681038906516108e-4 4.739919127561546e-4
      4.799539970614103e-4 4.859910751551812e-4 4.921040903432015e-4 4.982939977965312e-4
      5.045617647008040e-4 5.109083704073500e-4 5.173348065862235e-4 5.238420773811516e-4
      5.304311995664357e-4 5.371032027058228e-4 5.438591293133772e-4 5.507000350163772e-4
      5.576269887202566e-4 5.646410727756241e-4 5.717433831473842e-4 5.789350295859816e-4
      5.862171358008047e-4 5.935908396357648e-4 6.010572932470875e-4 6.086176632833410e-4
      6.162731310677245e-4 6.240248927826551e-4 6.318741596566713e-4 6.398221581536916e-4
      6.478701301646521e-4 6.560193332015523e-4 6.642710405939476e-4 6.726265416879054e-4
      6.810871420474709e-4 6.896541636586645e-4 6.983289451360414e-4 7.071128419318578e-4
      7.160072265478579e-4 7.250134887497339e-4 7.341330357842789e-4 7.433672925992702e-4
      7.527177020661227e-4 7.621857252053392e-4 7.717728414147976e-4 7.814805487009115e-4
      7.913103639126939e-4 8.012638229787717e-4 8.113424811473738e-4 8.215479132293437e-4
      8.318817138442085e-4 8.423454976693378e-4 8.529408996922433e-4 8.636695754660472e-4
      8.745332013681670e-4 8.855334748622525e-4 8.966721147634168e-4 9.079508615068066e-4
      9.193714774195474e-4 9.309357469961101e-4 9.426454771771454e-4 9.545024976318160e-4
      9.665086610436925e-4 9.786658434002341e-4 9.909759442859178e-4 1.003440887179053e-3
      1.016062619752325e-3 1.028843114177130e-3 1.041784367431723e-3 1.054888401613253e-3
      1.068157264253722e-3 1.081593028639914e-3 1.095197794137350e-3 1.108973686518316e-3
      1.122922858294026e-3 1.137047489050947e-3 1.151349785791374e-3 1.165831983278271e-3
      1.180496344384459e-3 1.195345160446195e-3 1.210380751621198e-3 1.225605467251182e-3
      1.241021686228938e-3 1.256631817370046e-3 1.272438299789254e-3 1.288443603281600e-3
      1.304650228708318e-3 1.321060708387603e-3 1.337677606490293e-3 1.354503519440523e-3
      1.371541076321424e-3 1.388792939285922e-3 1.406261803972706e-3 1.423950399927422e-3
      1.441861491029176e-3 1.459997875922392e-3 1.478362388454111e-3 1.496957898116778e-3
      1.515787310496610e-3 1.534853567727601e-3 1.554159648951231e-3 1.573708570781974e-3
      1.593503387778636e-3 1.613547192921647e-3 1.633843118096338e-3 1.654394334582311e-3
      1.675204053548955e-3 1.696275526557195e-3 1.717612046067559e-3 1.739216945954630e-3
      1.761093602027969e-3 1.783245432559600e-3 1.805675898818109e-3 1.828388505609484e-3
      1.851386801824746e-3 1.874674380994467e-3 1.898254881850275e-3 1.922131988893402e-3
      1.946309432970401e-3 1.970790991856100e-3 1.995580490843878e-3 2.020681803343394e-3
      2.046098851485791e-3 2.071835606736553e-3 2.097896090516050e-3 2.124284374827891e-3
      2.151004582895191e-3 2.178060889804820e-3 2.205457523159782e-3 2.233198763739775e-3
      2.261288946170081e-3 2.289732459598852e-3 2.318533748382934e-3 2.347697312782294e-3
      2.377227709663204e-3 2.407129553210257e-3 2.437407515647339e-3 2.468066327967688e-3
      2.499110780673101e-3 2.530545724522475e-3 2.562376071289741e-3 2.594606794531339e-3
      2.627242930363352e-3 2.660289578248402e-3 2.693751901792455e-3 2.727635129551643e-3
      2.761944555849239e-3 2.796685541602908e-3 2.831863515162353e-3 2.867483973157514e-3
      2.903552481357422e-3 2.940074675539863e-3 2.977056262371987e-3 3.014503020301977e-3
      3.052420800461941e-3 3.090815527582177e-3 3.129693200916908e-3 3.169059895181694e-3
      3.208921761502606e-3 3.249285028377354e-3 3.290156002648508e-3 3.331541070488947e-3
      3.373446698399726e-3 3.415879434220460e-3 3.458845908152453e-3 3.502352833794670e-3
      3.546407009192758e-3 3.591015317901256e-3 3.636184730059153e-3 3.681922303478997e-3
      3.728235184749690e-3 3.775130610353149e-3 3.822615907795042e-3 3.870698496749700e-3
      3.919385890219473e-3 3.968685695708647e-3 4.018605616412124e-3 4.069153452419086e-3
      4.120337101931744e-3 4.172164562499471e-3 4.224643932268424e-3 4.277783411246895e-3
      4.331591302586594e-3 4.386076013880014e-3 4.441246058474143e-3 4.497110056800694e-3
      4.553676737723057e-3 4.610954939900222e-3 4.668953613167806e-3 4.727681819936508e-3
      4.787148736608119e-3 4.847363655009350e-3 4.908335983843718e-3 4.970075250161649e-3
      5.032591100849114e-3 5.095893304134974e-3 5.159991751117276e-3 5.224896457308778e-3
      5.290617564201870e-3 5.357165340853212e-3 5.424550185488302e-3 5.492782627126202e-3
      5.561873327224749e-3 5.631833081346392e-3 5.702672820845049e-3 5.774403614574144e-3
      5.847036670616125e-3 5.920583338033783e-3 5.995055108643530e-3 6.070463618811035e-3
      6.146820651269435e-3 6.224138136960393e-3 6.302428156898365e-3 6.381702944058243e-3
      6.461974885286804e-3 6.543256523238181e-3 6.625560558333667e-3 6.708899850746208e-3
      6.793287422409788e-3 6.878736459054173e-3 6.965260312265182e-3 7.052872501570908e-3
      7.141586716554194e-3 7.231416818991610e-3 7.322376845019424e-3 7.414481007326765e-3
      7.507743697376375e-3 7.602179487653327e-3 7.697803133941981e-3 7.794629577631616e-3
      7.892673948051052e-3 7.991951564832633e-3 8.092477940305978e-3 8.194268781921771e-3
      8.297339994706109e-3 8.401707683745691e-3 8.507388156704254e-3 8.614397926370726e-3
      8.722753713239323e-3 8.832472448122195e-3 8.943571274794891e-3 9.056067552675099e-3
      9.169978859535135e-3 9.285322994248444e-3 9.402117979570736e-3 9.520382064956095e-3
      9.640133729408461e-3 9.761391684369064e-3 9.884174876640053e-3 1.000850249134503e-2
      1.013439395492673e-2 1.026186893818247e-2 1.039094735933774e-2 1.052164938715845e-2
      1.065399544410238e-2 1.078800620951016e-2 1.092370262283654e-2 1.106110588692219e-2
      1.120023747130666e-2 1.134111911558310e-2 1.148377283279502e-2 1.162822091287598e-2
      1.177448592613238e-2 1.192259072677012e-2 1.207255845646562e-2 1.222441254798175e-2
      1.237817672882925e-2 1.253387502497424e-2 1.269153176459225e-2 1.285117158186960e-2
      1.301281942085253e-2 1.317650053934474e-2 1.334224051285403e-2 1.351006523858845e-2
      1.368000093950285e-2 1.385207416839622e-2 1.402631181206066e-2 1.420274109548249e-2
      1.438138958609620e-2 1.456228519809190e-2 1.474545619677699e-2 1.493093120299269e-2
      1.511873919758608e-2 1.530890952593841e-2 1.550147190255039e-2 1.569645641568512e-2
      1.589389353206949e-2 1.609381410165463e-2 1.629624936243627e-2 1.650123094533577e-2
      1.670879087914250e-2 1.691896159551837e-2 1.713177593406546e-2 1.734726714745711e-2
      1.756546890663384e-2 1.778641530606446e-2 1.801014086907338e-2 1.823668055323502e-2
      1.846606975583592e-2 1.869834431940567e-2 1.893354053731742e-2 1.917169515945869e-2
      1.941284539797375e-2 1.965702893307800e-2 1.990428391894558e-2 2.015464898967107e-2
      2.040816326530612e-2 2.066486635797213e-2 2.092479837804958e-2 2.118799994044542e-2
      2.145451217093928e-2 2.172437671260937e-2 2.199763573233942e-2 2.227433192740718e-2
      2.255450853215609e-2 2.283820932475064e-2 2.312547863401686e-2 2.341636134636882e-2
      2.371090291282211e-2 2.400914935609574e-2 2.431114727780324e-2 2.461694386573430e-2
      2.492658690122796e-2 2.524012476663847e-2 2.555760645289520e-2 2.587908156715756e-2
      2.620460034056615e-2 2.653421363609166e-2 2.686797295648208e-2 2.720593045231028e-2
      2.754813893012253e-2 2.789465186068973e-2 2.824552338736228e-2 2.860080833453008e-2
      2.896056221618894e-2 2.932484124461481e-2 2.969370233914697e-2 3.006720313508195e-2
      3.044540199267900e-2 3.082835800627905e-2 3.121613101353836e-2 3.160878160477823e-2
      3.200637113245243e-2 3.240896172073355e-2 3.281661627522008e-2 3.322939849276553e-2
      3.364737287143118e-2 3.407060472056415e-2 3.449916017100187e-2 3.493310618540541e-2
      3.537251056872238e-2 3.581744197878161e-2 3.626796993702120e-2 3.672416483935121e-2
      3.718609796715327e-2 3.765384149841839e-2 3.812746851902494e-2 3.860705303415857e-2
      3.909266997987544e-2 3.958439523481133e-2 4.008230563203773e-2 4.058647897106718e-2
      4.109699403000974e-2 4.161393057788195e-2 4.213736938707118e-2 4.266739224595627e-2
      4.320408197168724e-2 4.374752242312571e-2 4.429779851394782e-2 4.485499622591231e-2
      4.541920262229529e-2 4.599050586149406e-2 4.656899521080212e-2 4.715476106035724e-2
      4.774789493726514e-2 4.834848951990084e-2 4.895663865238975e-2 4.957243735927120e-2
      5.019598186034592e-2 5.082736958571086e-2 5.146669919098264e-2 5.211407057271279e-2
      5.276958488399687e-2 5.343334455027962e-2 5.410545328535934e-2 5.478601610759330e-2
      5.547513935630705e-2 5.617293070841035e-2 5.687949919522146e-2 5.759495521950408e-2
      5.831941057271766e-2 5.905297845248493e-2 5.979577348027969e-2 6.054791171933608e-2
      6.130951069278433e-2 6.208068940201359e-2 6.286156834526593e-2 6.365226953646522e-2
      6.445291652428099e-2 6.526363441143418e-2 6.608454987424414e-2 6.691579118242191e-2
      6.775748821911329e-2 6.860977250119246e-2 6.947277719981261e-2 7.034663716121382e-2
      7.123148892779269e-2 7.212747075943824e-2 7.303472265513429e-2 7.395338637483552e-2
      7.488360546161728e-2 7.582552526410415e-2 7.677929295918194e-2 7.774505757499312e-2
      7.872297001422394e-2 7.971318307768276e-2 8.071585148817505e-2 8.173113191468017e-2
      8.275918299683013e-2 8.380016536969819e-2 8.485424168889818e-2 8.592157665599919e-2
      8.700233704426168e-2 8.809669172469478e-2 8.920481169244400e-2 9.032687009350894e-2
      9.146304225179723e-2 9.261350569652055e-2 9.377844018993244e-2 9.495802775541772e-2
      9.615245270593356e-2 9.736190167280821e-2 9.858656363490375e-2 9.982662994814298e-2
      1.010822943754105e-1 1.023537531168278e-1 1.036412048404098e-1 1.049448507131080e-1
      1.062648944322419e-1 1.076015422573284e-1 1.089550030423098e-1 1.103254882681871e-1
      1.117132120760654e-1 1.131183913006127e-1 1.145412455039419e-1 1.159819970099173e-1
      1.174408709388925e-1 1.189180952428873e-1 1.204139007412044e-1 1.219285211564964e-1
      1.234621931512847e-1 1.250151563649385e-1 1.265876534511198e-1 1.281799301156973e-1
      1.297922351551394e-1 1.314248204953891e-1 1.330779412312268e-1 1.347518556661313e-1
      1.364468253526382e-1 1.381631151332097e-1 1.399009931816160e-1 1.416607310448375e-1
      1.434426036854959e-1 1.452468895248163e-1 1.470738704861319e-1 1.489238320389354e-1
      1.507970632434827e-1 1.526938567959609e-1 1.546145090742214e-1 1.565593201840904e-1
      1.585285940062608e-1 1.605226382437733e-1 1.625417644700975e-1 1.645862881778138e-1
      1.666565288279112e-1 1.687528098997035e-1 1.708754589413728e-1 1.730248076211506e-1
      1.752011917791407e-1 1.774049514797960e-1 1.796364310650533e-1 1.818959792081375e-1
      1.841839489680435e-1 1.865006978447006e-1 1.888465878348345e-1 1.912219854885293e-1
      1.936272619665005e-1 1.960627930980921e-1 1.985289594399977e-1 2.010261463357261e-1
      2.035547439758107e-1 2.061151474587766e-1 2.087077568528778e-1 2.113329772586060e-1
      2.139912188719912e-1 2.166828970486941e-1 2.194084323689052e-1 2.221682507030643e-1
      2.249627832784001e-1 2.277924667463135e-1 2.306577432506039e-1 2.335590604965535e-1
      2.364968718208857e-1 2.394716362625962e-1 2.424838186346816e-1 2.455338895967661e-1
      2.486223257286423e-1 2.517496096047402e-1 2.549162298695268e-1 2.581226813138617e-1
      2.613694649523070e-1 2.646570881014108e-1 2.679860644589802e-1 2.713569141843426e-1
      2.747701639796267e-1 2.782263471720564e-1 2.817260037972876e-1 2.852696806837887e-1
      2.888579315382818e-1 2.924913170322643e-1 2.961704048896107e-1 2.998957699752845e-1
      3.036679943851602e-1 3.074876675369754e-1 3.113553862624323e-1 3.152717549004495e-1
      3.192373853915953e-1 3.232528973737027e-1 3.273189182786873e-1 3.314360834305889e-1
      3.356050361448380e-1 3.398264278287785e-1 3.441009180834500e-1 3.484291748066502e-1
      3.528118742972993e-1 3.572497013611080e-1 3.617433494175846e-1 3.662935206083807e-1
      3.709009259070013e-1 3.755662852298994e-1 3.802903275489595e-1 3.850737910054058e-1
      3.899174230251361e-1 3.948219804355065e-1 3.997882295835922e-1 4.048169464559251e-1
      4.099089167997484e-1 4.150649362457884e-1 4.202858104325721e-1 4.255723551323150e-1
      4.309253963783801e-1 4.363457705943540e-1 4.418343247247362e-1 4.473919163672750e-1
      4.530194139069728e-1 4.587176966517679e-1 4.644876549699333e-1 4.703301904291959e-1
      4.762462159376065e-1 4.822366558861887e-1 4.883024462933705e-1 4.944445349512445e-1
      5.006638815736607e-1 5.069614579461805e-1 5.133382480779265e-1 5.197952483553285e-1
      5.263334676978176e-1 5.329539277154693e-1 5.396576628686286e-1 5.464457206295542e-1
      5.533191616460797e-1 5.602790599073489e-1 5.673265029116264e-1 5.744625918362174e-1
      5.816884417095372e-1 5.890051815853273e-1 5.964139547190804e-1 6.039159187466731e-1
      6.115122458652454e-1 6.192041230163666e-1 6.269927520714884e-1 6.348793500197481e-1
      6.428651491581218e-1 6.509513972839693e-1 6.591393578900147e-1 6.674303103617586e-1
      6.758255501773941e-1 6.843263891102238e-1 6.929341554336235e-1 7.016501941285965e-1
      7.104758670939194e-1 7.194125533589498e-1 7.284616492991002e-1 7.376245688540191e-1
      7.469027437485314e-1 7.562976237163387e-1 7.658106767265512e-1 7.754433892130573e-1
      7.851972663067784e-1 7.950738320708576e-1 8.050746297387869e-1 8.152012219555496e-1
      8.254551910217844e-1 8.358381391410163e-1 8.463516886700166e-1 8.569974823722859e-1
      8.677771836747507e-1 8.786924769276727e-1 8.897450676678266e-1 9.009366828850059e-1
      9.122690712918542e-1 9.237440035971176e-1 9.353632727823166e-1 9.471286943818974e-1
      9.590421067669254e-1 9.711053714323205e-1 9.833203732877308e-1 9.956890209520502e-1
      1.008213247051637e0 1.020895008522302e0 1.033736286915075e0 1.046739088705831e0
      1.059905445608806e0 1.073237414894050e0 1.086737079708892e0 1.100406549403420e0
      1.114247959860087e0 1.128263473827438e0 1.142455281258044e0 1.156825599650691e0
      1.171376674396862e0 1.186110779131591e0 1.201030216088724e0 1.216137316460632e0
      1.231434440762491e0 1.246923979201089e0 1.262608352048324e0 1.278490010019366e0
      1.294571434655579e0 1.310855138712285e0 1.327343666551368e0 1.344039594538851e0
      1.360945531447453e0 1.378064118864207e0 1.395398031603229e0 1.412949978123646e0
      1.430722700952813e0 1.448718977114835e0 1.466941618564471e0 1.485393472626525e0
      1.504077422440732e0 1.522996387412263e0 1.542153323667891e0 1.561551224517875e0
      1.581193120923693e0 1.601082081971615e0 1.621221215352272e0 1.641613667846231e0
      1.662262625815676e0 1.683171315702308e0 1.704343004531454e0 1.725781000422572e0
      1.747488653106136e0 1.769469354447039e0 1.791726538974590e0 1.814263684419149e0
      1.837084312255547e0 1.860191988253315e0 1.883590323033834e0 1.907282972634525e0
      1.931273639080085e0 1.955566070960957e0 1.980164064019050e0 2.005071461740818e0
      2.030292155957836e0 2.055830087454880e0 2.081689246585708e0 2.107873673896548e0
      2.134387460757433e0 2.161234750001511e0 2.188419736572338e0 2.215946668179380e0
      2.243819845961706e0 2.272043625160048e0 2.300622415797333e0 2.329560683367736e0
      2.358862949534442e0 2.388533792836161e0 2.418577849402517e0 2.448999813678481e0
      2.479804439157856e0 2.510996539126052e0 2.542580987412152e0 2.574562719150453e0
      2.606946731551613e0 2.639738084683448e0 2.672941902261604e0 2.706563372450136e0
      2.740607748672153e0 2.775080350430716e0 2.809986564139974e0 2.845331843966840e0
      2.881121712683204e0 2.917361762528857e0 2.954057656085329e0 2.991215127160636e0
      3.028839981685237e0 3.066938098619204e0 3.105515430870808e0 3.144578006226713e0
      3.184131928293778e0 3.224183377452805e0 3.264738611824218e0 3.305803968245885e0
      3.347385863263306e0 3.389490794132166e0 3.432125339833580e0 3.475296162102064e0
      3.519010006466415e0 3.563273703303764e0 3.608094168906785e0 3.653478406564422e0
      3.699433507656150e0 3.745966652760000e0 3.793085112774578e0 3.840796250055112e0
      3.889107519563877e0 3.938026470035032e0 3.987560745154101e0 4.037718084752362e0
      4.088506326016160e0 4.139933404711528e0 4.192007356424150e0 4.244736317814911e0
      4.298128527891321e0 4.352192329294818e0 4.406936169604370e0 4.462368602656412e0
      4.518498289881371e0 4.575334001657088e0 4.632884618679145e0 4.691159133348548e0
      4.750166651176781e0 4.809916392208543e0 4.870417692462446e0 4.931680005389730e0
      4.993712903351437e0 5.056526079114088e0 5.120129347364175e0 5.184532646241781e0
      5.249746038893367e0 5.315779715044220e0 5.382643992590597e0 5.450349319211880e0
      5.518906274003122e0 5.588325569127971e0 5.658618051492530e0 5.729794704440194e0
      5.801866649467774e0 5.874845147963334e0 5.948741602965718e0 6.023567560946374e0
      6.099334713613481e0 6.176054899738772e0 6.253740107007441e0 6.332402473891151e0
      6.412054291544780e0 6.492708005726899e0 6.574376218744419e0 6.657071691421803e0
      6.740807345094876e0 6.825596263629898e0 6.911451695467909e0 6.998387055694783e0
      7.086415928137451e0 7.175552067486302e0 7.265809401444471e0 7.357202032904035e0
      7.449744242149570e0 7.543450489089576e0 7.638335415515758e0 7.734413847390930e0
      7.831700797165555e0 7.930211466123445e0 8.029961246757070e0 8.130965725172571e0
      8.233240683525207e0 8.336802102485317e0 8.441666163735281e0 8.547849252498047e0
      8.655367960097236e0 8.764239086549672e0 8.874479643190380e0 8.986106855330590e0
      9.099138164949338e0 9.213591233418684e0 9.329483944263448e0 9.446834405955501e0
      9.565660954743205e0 9.685982157516591e0 9.807816814708355e0 9.931183963231575e0
      1.005610287945422e1 1.018259308221106e1 1.031067433585366e1 1.044036665333845e1
      1.057169029935392e1 1.070466579348695e1 1.083931391342900e1 1.097565569822280e1
      1.111371245154958e1 1.125350574505793e1 1.139505742173441e1 1.153838959931643e1
      1.168352467374840e1 1.183048532268095e1 1.197929450901447e1 1.212997548448711e1
      1.228255179330780e1 1.243704727583527e1 1.259348607230293e1 1.275189262659104e1
      1.291229169004600e1 1.307470832534777e1 1.323916791042610e1 1.340569614242571e1
      1.357431904172167e1 1.374506295598509e1 1.391795456429991e1 1.409302088133172e1
      1.427028926154869e1 1.444978740349591e1 1.463154335412326e1 1.481558551316778e1
      1.500194263759131e1 1.519064384607361e1 1.538171862356248e1 1.557519682588065e1
      1.577110868439082e1 1.596948481071952e1 1.617035620154004e1 1.637375424341590e1
      1.657971071770498e1 1.678825780552535e1 1.699942809278385e1 1.721325457526742e1
      1.742977066379901e1 1.764901018945800e1 1.787100740886625e1 1.809579700954101e1
      1.832341411531466e1 1.855389429182311e1 1.878727355206288e1 1.902358836201813e1
      1.926287564635877e1 1.950517279420975e1 1.975051766499340e1 1.999894859434498e1
      2.025050440010258e1 2.050522438837269e1 2.076314835967166e1 2.102431661514478e1
      2.128876996286335e1 2.155654972420092e1 2.182769774029008e1 2.210225637855992e1
      2.238026853935630e1 2.266177766264500e1 2.294682773479920e1 2.323546329547268e1
      2.352772944455895e1 2.382367184923848e1 2.412333675111412e1 2.442677097343640e1
      2.473402192841997e1 2.504513762465157e1 2.536016667459176e1 2.567915830217054e1
      2.600216235047865e1 2.632922928955589e1 2.666041022427679e1 2.699575690233628e1
      2.733532172233509e1 2.767915774196711e1 2.802731868631005e1 2.837985895621969e1
      2.873683363683052e1 2.909829850616270e1 2.946431004383736e1 2.983492543990203e1
      3.021020260376625e1 3.059020017325045e1 3.097497752374802e1 3.136459477750270e1
      3.175911281300319e1 3.215859327449506e1 3.256309858161325e1 3.297269193913500e1
      3.338743734685566e1 3.380739960958909e1 3.423264434729314e1 3.466323800532331e1
      3.509924786481478e1 3.554074205319505e1 3.598778955482938e1 3.644046022179933e1
      3.689882478481762e1 3.736295486427984e1 3.783292298145507e1 3.830880256981790e1
      3.879066798652206e1 3.927859452401933e1 3.977265842182398e1 4.027293687842507e1
      4.077950806334941e1 4.129245112937513e1 4.181184622489996e1 4.233777450646436e1
      4.287031815143219e1 4.340956037083161e1 4.395558542235633e1 4.450847862353163e1
      4.506832636504511e1 4.563521612424529e1 4.620923647881055e1 4.679047712058895e1
      4.737902886961341e1 4.797498368829220e1 4.857843469577809e1 4.918947618251885e1
      4.980820362498982e1 5.043471370061276e1 5.106910430286174e1 5.171147455655886e1
      5.236192483336334e1 5.302055676745410e1 5.368747327141094e1 5.436277855229453e1
      5.504657812792878e1 5.573897884338873e1 5.644008888769470e1 5.715001781071763e1
      5.786887654029619e1 5.859677739956922e1 5.933383412452710e1 6.008016188178246e1
      6.083587728656589e1 6.160109842094701e1 6.237594485228469e1 6.316053765191050e1
      6.395499941404542e1 6.475945427495624e1 6.557402793235179e1 6.639884766502303e1
      6.723404235273155e1 6.807974249634629e1 6.893608023823541e1 6.980318938291340e1
      7.068120541794805e1 7.157026553513141e1 7.247050865191536e1 7.338207543311855e1
      7.430510831290528e1 7.523975151704069e1 7.618615108542724e1 7.714445489492269e1
      7.811481268244707e1 7.909737606837905e1 8.009229858024643e1 8.109973567671616e1
      8.211984477188393e1 8.315278525987145e1 8.419871853973159e1 8.525780804066706e1
      8.633021924756740e1 8.741611972686519e1 8.851567915271982e1 8.962906933352873e1