<?xml version="1.0" encoding="UTF-8"?>
<UPF version="2.0.1">
  <PP_INFO><![CDATA[
Generated using "atomic" code by A. Dal Corso  v.6.3MaX
Author: ADC
Generation date: 27May2022
Pseudopotential type: PAW
Element: Th
Functional:  SLA  PW   PBX  PBC
    Suggested minimum cutoff for wavefunctions: 103. Ry
    Suggested minimum cutoff for charge density: 413. Ry
    The Pseudo was generated with a Scalar-Relativistic Calculation
    Local Potential by smoothing AE potential with Bessel fncs, cutoff radius:   2.1000
    Pseudopotential contains additional information for GIPAW reconstruction.
    Valence configuration:
    nl pn  l   occ       Rcut    Rcut US       E pseu
    6S  1  0  2.00      1.400      1.600    -3.184481
    7S  2  0  2.00      1.400      1.600    -0.299851
    6P  2  1  6.00      1.600      2.100    -1.574229
    6D  3  2  1.00      1.600      2.200    -0.173842
    5F  4  3  1.00      1.200      1.300    -0.092752
    Generation configuration:
    6S  1  0  2.00      1.400      1.600    -3.184528
    7S  2  0  2.00      1.400      1.600    -0.299857
    6P  2  1  6.00      1.600      2.100    -1.574255
    7P  3  1  0.00      1.600      2.100     4.000000
    6D  3  2  1.00      1.600      2.200    -0.173854
    6D  3  2  0.00      1.600      2.200     4.800000
    5F  4  3  1.00      1.200      1.300    -0.092797
    5F  4  3  0.00      1.200      1.300     3.100000
    Pseudization used: troullier-martins
]]>
    <PP_INPUTFILE><![CDATA[
 &input
   title='Th',
   zed=90.0,
   rel=1,
   config='[Rn] 6d1.0 7s2.0 7p0. 5f1',
   iswitch=3,
   dft='PBE'
 /
 &inputp
   lpaw=.true.
   pseudotype=3,
   file_pseudopw='Th.pbe-spfn-kjpaw_psl.1.0.0.UPF',
   author='ADC',
   lloc=-1,
   rcloc=2.1,
   which_augfun='PSQ',
   rmatch_augfun_nc=.true.,
   nlcc=.true.,
   new_core_ps=.true.,
   rcore=1.1,
   tm=.true.
 /
8
6S  1  0  2.00  0.00  1.40  1.60  0.0
7S  2  0  2.00  0.00  1.40  1.60  0.0
6P  2  1  6.00  0.00  1.60  2.10  0.0
7P  3  1  0.00  4.00  1.60  2.10  0.0
6D  3  2  1.00  0.00  1.60  2.20  0.0
6D  3  2  0.00  4.80  1.60  2.20  0.0
5F  4  3  1.00  0.00  1.20  1.30  0.0
5F  4  3  0.00  3.10  1.20  1.30  0.0
]]></PP_INPUTFILE>
  </PP_INFO>
  <!--
 END OF HUMAN READABLE SECTION 
-->
  <PP_HEADER generated="Generated using &quot;atomic&quot; code by A. Dal Corso  v.6.3MaX" author="ADC" date="27May2022" comment="" element="Th" pseudo_type="PAW" relativistic="scalar" is_ultrasoft="true" is_paw="true" is_coulomb="false" has_so="false" has_wfc="true" has_gipaw="true" paw_as_gipaw="true" core_correction="true" functional=" SLA  PW   PBX  PBC" z_valence="1.200000000000e1" total_psenergy="-9.655512775937e2" wfc_cutoff="1.032542297024e2" rho_cutoff="4.130169188094e2" l_max="3" l_max_rho="6" l_local="-1" mesh_size="1289" number_of_wfc="5" number_of_proj="8"/>
  <PP_MESH dx="1.250000000000e-2" mesh="1289" xmin="-7.000000000000e0" rmax="1.000000000000e2" zmesh="9.000000000000e1">
    <PP_R>
      1.013202183949462e-5 1.025946698521136e-5 1.038851519351758e-5 1.051918662845838e-5
      1.065150170771133e-5 1.078548110577676e-5 1.092114575720821e-5 1.105851685988346e-5
      1.119761587831678e-5 1.133846454701283e-5 1.148108487386263e-5 1.162549914358243e-5
      1.177172992119567e-5 1.191980005555885e-5 1.206973268293175e-5 1.222155123059242e-5
      1.237527942049781e-5 1.253094127299036e-5 1.268856111055119e-5 1.284816356160064e-5
      1.300977356434638e-5 1.317341637068014e-5 1.333911755012334e-5 1.350690299382238e-5
      1.367679891859424e-5 1.384883187102277e-5 1.402302873160683e-5 1.419941671896027e-5
      1.437802339406498e-5 1.455887666457733e-5 1.474200478918879e-5 1.492743638204141e-5
      1.511520041719882e-5 1.530532623317352e-5 1.549784353751110e-5 1.569278241143202e-5
      1.589017331453193e-5 1.609004708954106e-5 1.629243496714337e-5 1.649736857085652e-5
      1.670487992197303e-5 1.691500144456368e-5 1.712776597054390e-5 1.734320674480369e-5
      1.756135743040241e-5 1.778225211382849e-5 1.800592531032563e-5 1.823241196928585e-5
      1.846174747971038e-5 1.869396767573934e-5 1.892910884225083e-5 1.916720772053047e-5
      1.940830151401244e-5 1.965242789409245e-5 1.989962500601411e-5 2.014993147482906e-5
      2.040338641143230e-5 2.066002941867334e-5 2.091990059754419e-5 2.118304055344529e-5
      2.144949040253010e-5 2.171929177812963e-5 2.199248683725774e-5 2.226911826719821e-5
      2.254922929217482e-5 2.283286368010510e-5 2.312006574943922e-5 2.341088037608482e-5
      2.370535300041898e-5 2.400352963438838e-5 2.430545686869872e-5 2.461118188009463e-5
      2.492075243873115e-5 2.523421691563785e-5 2.555162429027707e-5 2.587302415819682e-5
      2.619846673878037e-5 2.652800288309304e-5 2.686168408182781e-5 2.719956247335093e-5
      2.754169085184843e-5 2.788812267557554e-5 2.823891207520954e-5 2.859411386230777e-5
      2.895378353787220e-5 2.931797730102135e-5 2.968675205777167e-5 3.006016542992918e-5
      3.043827576409298e-5 3.082114214077210e-5 3.120882438361681e-5 3.160138306876631e-5
      3.199887953431380e-5 3.240137588989076e-5 3.280893502637162e-5 3.322162062570067e-5
      3.363949717084239e-5 3.406262995585714e-5 3.449108509610343e-5 3.492492953856867e-5
      3.536423107232964e-5 3.580905833914474e-5 3.625948084417943e-5 3.671556896686647e-5
      3.717739397190302e-5 3.764502802038568e-5 3.811854418108594e-5 3.859801644186727e-5
      3.908351972124586e-5 3.957512988009699e-5 4.007292373350812e-5 4.057697906278159e-5
      4.108737462758813e-5 4.160419017827311e-5 4.212750646831786e-5 4.265740526695737e-5
      4.319396937195701e-5 4.373728262254981e-5 4.428742991253656e-5 4.484449720355065e-5
      4.540857153848963e-5 4.597974105511597e-5 4.655809499982865e-5 4.714372374160822e-5
      4.773671878613711e-5 4.833717279009743e-5 4.894517957564895e-5 4.956083414508891e-5
      5.018423269569628e-5 5.081547263476303e-5 5.145465259481385e-5 5.210187244901789e-5
      5.275723332679418e-5 5.342083762961317e-5 5.409278904699737e-5 5.477319257272280e-5
      5.546215452122462e-5 5.615978254420905e-5 5.686618564747391e-5 5.758147420794140e-5
      5.830575999090427e-5 5.903915616748972e-5 5.978177733234245e-5 6.053373952153027e-5
      6.129516023067523e-5 6.206615843331221e-5 6.284685459947898e-5 6.363737071453984e-5
      6.443783029824602e-5 6.524835842403613e-5 6.606908173857883e-5 6.690012848156178e-5
      6.774162850572930e-5 6.859371329717224e-5 6.945651599587290e-5 7.033017141650832e-5
      7.121481606951535e-5 7.211058818242098e-5 7.301762772144015e-5 7.393607641334637e-5
      7.486607776761631e-5 7.580777709885364e-5 7.676132154949479e-5 7.772686011280012e-5
      7.870454365613472e-5 7.969452494454110e-5 8.069695866460991e-5 8.171200144864930e-5
      8.273981189915929e-5 8.378055061361419e-5 8.483438020955512e-5 8.590146535000077e-5
      8.698197276917524e-5 8.807607129856105e-5 8.918393189327956e-5 9.030572765880235e-5
      9.144163387800033e-5 9.259182803853122e-5 9.375648986057255e-5 9.493580132490385e-5
      9.612994670134039e-5 9.733911257752698e-5 9.856348788809175e-5 9.980326394416796e-5
      1.010586344632870e-4 1.023297955996460e-4 1.036169459747592e-4 1.049202867084913e-4
      1.062400214504834e-4 1.075763564119744e-4 1.089295003980203e-4 1.102996648401223e-4
      1.116870638292621e-4 1.130919141493541e-4 1.145144353111194e-4 1.159548495863834e-4
      1.174133820428073e-4 1.188902605790547e-4 1.203857159604017e-4 1.218999818547943e-4
      1.234332948693590e-4 1.249858945873740e-4 1.265580236057042e-4 1.281499275727069e-4
      1.297618552266161e-4 1.313940584344069e-4 1.330467922311513e-4 1.347203148598678e-4
      1.364148878118715e-4 1.381307758676344e-4 1.398682471381556e-4 1.416275731068563e-4
      1.434090286719986e-4 1.452128921896386e-4 1.470394455171216e-4 1.488889740571203e-4
      1.507617668022326e-4 1.526581163801349e-4 1.545783190993069e-4 1.565226749953304e-4
      1.584914878777695e-4 1.604850653776431e-4 1.625037189954914e-4 1.645477641500489e-4
      1.666175202275302e-4 1.687133106315327e-4 1.708354628335715e-4 1.729843084242455e-4
      1.751601831650499e-4 1.773634270408403e-4 1.795943843129542e-4 1.818534035730048e-4
      1.841408377973472e-4 1.864570444022329e-4 1.888023852996565e-4 1.911772269539043e-4
      1.935819404388168e-4 1.960169014957685e-4 1.984824905923782e-4 2.009790929819590e-4
      2.035070987637131e-4 2.060669029436876e-4 2.086589054964935e-4 2.112835114278028e-4
      2.139411308376325e-4 2.166321789844222e-4 2.193570763499198e-4 2.221162487048825e-4
      2.249101271756043e-4 2.277391483112806e-4 2.306037541522194e-4 2.335043922989115e-4
      2.364415159819686e-4 2.394155841329419e-4 2.424270614560308e-4 2.454764185006938e-4
      2.485641317351734e-4 2.516906836209442e-4 2.548565626880992e-4 2.580622636116842e-4
      2.613082872889901e-4 2.645951409178209e-4 2.679233380757430e-4 2.712933988003337e-4
      2.747058496704378e-4 2.781612238884461e-4 2.816600613636106e-4 2.852029087964048e-4
      2.887903197639483e-4 2.924228548065035e-4 2.961010815150610e-4 2.998255746200276e-4
      3.035969160810285e-4 3.074156951778398e-4 3.112825086024647e-4 3.151979605523678e-4
      3.191626628248826e-4 3.231772349128053e-4 3.272423041011921e-4 3.313585055653745e-4
      3.355264824702056e-4 3.397468860705566e-4 3.440203758130766e-4 3.483476194392321e-4
      3.527292930896439e-4 3.571660814097341e-4 3.616586776567048e-4 3.662077838078597e-4
      3.708141106702898e-4 3.754783779919395e-4 3.802013145740670e-4 3.849836583851225e-4
      3.898261566760560e-4 3.947295660970774e-4 3.996946528158852e-4 4.047221926373804e-4
      4.098129711248891e-4 4.149677837229069e-4 4.201874358813898e-4 4.254727431816073e-4
      4.308245314635778e-4 4.362436369551090e-4 4.417309064024591e-4 4.472871972026428e-4
      4.529133775374025e-4 4.586103265088616e-4 4.643789342768879e-4 4.702201021981814e-4
      4.761347429671131e-4 4.821237807583375e-4 4.881881513711935e-4 4.943288023759280e-4
      5.005466932617536e-4 5.068427955867712e-4 5.132180931297792e-4 5.196735820439886e-4
      5.262102710126769e-4 5.328291814067942e-4 5.395313474445552e-4 5.463178163530397e-4
      5.531896485318216e-4 5.601479177186598e-4 5.671937111572713e-4 5.743281297672157e-4
      5.815522883159153e-4 5.888673155928421e-4 5.962743545858905e-4 6.037745626599721e-4
      6.113691117378584e-4 6.190591884832932e-4 6.268459944864151e-4 6.347307464515033e-4
      6.427146763870944e-4 6.507990317984840e-4 6.589850758826525e-4 6.672740877256439e-4
      6.756673625024218e-4 6.841662116792470e-4 6.927719632185941e-4 7.014859617866486e-4
      7.103095689634174e-4 7.192441634554729e-4 7.282911413113818e-4 7.374519161398405e-4
      7.467279193305529e-4 7.561206002778911e-4 7.656314266073620e-4 7.752618844049296e-4
      7.850134784492181e-4 7.948877324466358e-4 8.048861892694605e-4 8.150104111969126e-4
      8.252619801592655e-4 8.356424979850271e-4 8.461535866512259e-4 8.567968885368524e-4
      8.675740666794795e-4 8.784868050351186e-4 8.895368087413399e-4 9.007258043837025e-4
      9.120555402655423e-4 9.235277866811396e-4 9.351443361923378e-4 9.469070039086320e-4
      9.588176277707833e-4 9.708780688380042e-4 9.830902115787479e-4 9.954559641651635e-4
      1.007977258771251e-3 1.020656051874766e-3 1.033494324562928e-3 1.046494082841963e-3
      1.059657357950552e-3 1.072986206677210e-3 1.086482711681667e-3 1.100148981820292e-3
      1.113987152475597e-3 1.127999385889901e-3 1.142187871503182e-3 1.156554826295185e-3
      1.171102495131826e-3 1.185833151115958e-3 1.200749095942548e-3 1.215852660258322e-3
      1.231146204025933e-3 1.246632116892708e-3 1.262312818564042e-3 1.278190759181471e-3
      1.294268419705522e-3 1.310548312303362e-3 1.327032980741329e-3 1.343725000782408e-3
      1.360626980588688e-3 1.377741561128903e-3 1.395071416591081e-3 1.412619254800395e-3
      1.430387817642269e-3 1.448379881490797e-3 1.466598257642559e-3 1.485045792755895e-3
      1.503725369295697e-3 1.522639905983805e-3 1.541792358255059e-3 1.561185718719091e-3
      1.580823017627930e-3 1.600707323349481e-3 1.620841742846971e-3 1.641229422164409e-3
      1.661873546918168e-3 1.682777342794741e-3 1.703944076054761e-3 1.725377054043367e-3
      1.747079625706974e-3 1.769055182116559e-3 1.791307156997521e-3 1.813839027266205e-3
      1.836654313573184e-3 1.859756580853362e-3 1.883149438883002e-3 1.906836542843765e-3
      1.930821593893835e-3 1.955108339746239e-3 1.979700575254428e-3 2.004602143005232e-3
      2.029816933919275e-3 2.055348887858936e-3 2.081201994243967e-3 2.107380292674837e-3
      2.133887873563936e-3 2.160728878774707e-3 2.187907502268823e-3 2.215427990761501e-3
      2.243294644385061e-3 2.271511817360823e-3 2.300083918679475e-3 2.329015412789976e-3
      2.358310820297145e-3 2.387974718668007e-3 2.418011742947033e-3 2.448426586480378e-3
      2.479224001649220e-3 2.510408800612343e-3 2.541985856058028e-3 2.573960101965432e-3
      2.606336534375531e-3 2.639120212171757e-3 2.672316257870468e-3 2.705929858421342e-3
      2.739966266017851e-3 2.774430798917930e-3 2.809328842274961e-3 2.844665848979223e-3
      2.880447340509907e-3 2.916678907797860e-3 2.953366212099186e-3 2.990514985879821e-3
      3.028131033711252e-3 3.066220233177480e-3 3.104788535793416e-3 3.143841967934812e-3
      3.183386631779890e-3 3.223428706262838e-3 3.263974448039255e-3 3.305030192463786e-3
      3.346602354580026e-3 3.388697430122880e-3 3.431321996533554e-3 3.474482713987265e-3
      3.518186326433926e-3 3.562439662651898e-3 3.607249637314997e-3 3.652623252072935e-3
      3.698567596645330e-3 3.745089849929494e-3 3.792197281122155e-3 3.839897250855273e-3
      3.888197212346172e-3 3.937104712562098e-3 3.986627393399464e-3 4.036772992877905e-3
      4.087549346349359e-3 4.138964387722367e-3 4.191026150701744e-3 4.243742770043879e-3
      4.297122482827795e-3 4.351173629742211e-3 4.405904656388810e-3 4.461324114601853e-3
      4.517440663784438e-3 4.574263072261542e-3 4.631800218650093e-3 4.690061093246284e-3
      4.749054799430298e-3 4.808790555088750e-3 4.869277694054995e-3 4.930525667567554e-3
      4.992544045746908e-3 5.055342519090820e-3 5.118930899988512e-3 5.183319124253874e-3
      5.248517252677941e-3 5.314535472600934e-3 5.381384099504030e-3 5.449073578621181e-3
      5.517614486571221e-3 5.587017533010455e-3 5.657293562306104e-3 5.728453555230715e-3
      5.800508630677959e-3 5.873470047399975e-3 5.947349205766558e-3 6.022157649546525e-3
      6.097907067711406e-3 6.174609296261908e-3 6.252276320077290e-3 6.330920274788033e-3
      6.410553448672075e-3 6.491188284574845e-3 6.572837381853505e-3 6.655513498345620e-3
      6.739229552362593e-3 6.823998624708199e-3 6.909833960722449e-3 6.996748972351226e-3
      7.084757240241933e-3 7.173872515865467e-3 7.264108723664970e-3 7.355479963231492e-3
      7.448000511507108e-3 7.541684825015721e-3 7.636547542121913e-3 7.732603485318245e-3
      7.829867663541262e-3 7.928355274516699e-3 8.028081707134140e-3 8.129062543851575e-3
      8.231313563130199e-3 8.334850741899800e-3 8.439690258055210e-3 8.545848492984122e-3
      8.653342034126721e-3 8.762187677567519e-3 8.872402430659747e-3 8.984003514682810e-3
      9.097008367533139e-3 9.211434646448893e-3 9.327300230768971e-3 9.444623224726650e-3
      9.563421960278426e-3 9.683714999968426e-3 9.805521139828839e-3 9.928859412316843e-3
      1.005374908928844e-2 1.018020968500976e-2 1.030826095920615e-2 1.043792292014973e-2
      1.056921582778571e-2 1.070216019689803e-2 1.083677680031481e-2 1.097308667215424e-2
      1.111111111111111e-2 1.125087168378483e-2 1.139239022804921e-2 1.153568885646473e-2
      1.168078995973361e-2 1.182771621019844e-2 1.197649056538480e-2 1.212713627158836e-2
      1.227967686750720e-2 1.243413618791979e-2 1.259053836740918e-2 1.274890784413414e-2
      1.290926936364759e-2 1.307164798276323e-2 1.323606907347066e-2 1.340255832689978e-2
      1.357114175733522e-2 1.374184570628095e-2 1.391469684657628e-2 1.408972218656356e-2
      1.426694907430824e-2 1.444640520187213e-2 1.462811860964024e-2 1.481211769070226e-2
      1.499843119528893e-2 1.518708823526440e-2 1.537811828867502e-2 1.557155120435527e-2
      1.576741720659176e-2 1.596574689984584e-2 1.616657127353557e-2 1.636992170687796e-2
      1.657582997379190e-2 1.678432824786304e-2 1.699544910737089e-2 1.720922554037926e-2
      1.742569094989077e-2 1.764487915906604e-2 1.786682441650871e-2 1.809156140161679e-2
      1.831912523000142e-2 1.854955145897381e-2 1.878287609310102e-2 1.901913558983184e-2
      1.925836686519329e-2 1.950060729955887e-2 1.974589474348932e-2 1.999426752364677e-2
      2.024576444878345e-2 2.050042481580557e-2 2.075828841591358e-2 2.101939554081967e-2
      2.128378698904330e-2 2.155150407228617e-2 2.182258862188720e-2 2.209708299535880e-2
      2.237503008300530e-2 2.265647331462462e-2 2.294145666629431e-2 2.323002466724286e-2
      2.352222240680750e-2 2.381809554147955e-2 2.411769030203826e-2 2.442105350077448e-2
      2.472823253880521e-2 2.503927541348010e-2 2.535423072588116e-2 2.567314768841672e-2
      2.599607613251103e-2 2.632306651639046e-2 2.665416993296776e-2 2.698943811782543e-2
      2.732892345729945e-2 2.767267899666480e-2 2.802075844842388e-2 2.837321620069919e-2
      2.873010732573163e-2 2.909148758848557e-2 2.945741345536231e-2 2.982794210302302e-2
      3.020313142732272e-2 3.058304005235675e-2 3.096772733962057e-2 3.135725339728555e-2
      3.175167908959073e-2 3.215106604635290e-2 3.255547667259672e-2 3.296497415830521e-2
      3.337962248829369e-2 3.379948645220740e-2 3.422463165464479e-2 3.465512452540884e-2
      3.509103232988632e-2 3.553242317955860e-2 3.597936604264404e-2 3.643193075487416e-2
      3.689018803040613e-2 3.735420947287145e-2 3.782406758656464e-2 3.829983578777197e-2
      3.878158841624268e-2 3.926940074680526e-2 3.976334900112866e-2 4.026351035963267e-2
      4.076996297354719e-2 4.128278597712337e-2 4.180205949999905e-2 4.232786467971847e-2
      4.286028367441081e-2 4.339939967562728e-2 4.394529692133975e-2 4.449806070910366e-2
      4.505777740938529e-2 4.562453447905790e-2 4.619842047506679e-2 4.677952506826622e-2
      4.736793905743136e-2 4.796375438344494e-2 4.856706414366396e-2 4.917796260646598e-2
      4.979654522597849e-2 5.042290865699453e-2 5.105715077007433e-2 5.169937066683854e-2
      5.234966869545272e-2 5.300814646630670e-2 5.367490686789203e-2 5.435005408287784e-2
      5.503369360439015e-2 5.572593225249514e-2 5.642687819088979e-2 5.713664094380324e-2
      5.785533141310946e-2 5.858306189565655e-2 5.931994610081310e-2 6.006609916823519e-2
      6.082163768585783e-2 6.158667970811138e-2 6.236134477436838e-2 6.314575392762166e-2
      6.394002973339701e-2 6.474429629890532e-2 6.555867929243353e-2 6.638330596298135e-2
      6.721830516014389e-2 6.806380735424429e-2 6.891994465672080e-2 6.978685084076851e-2
      7.066466136224254e-2 7.155351338082293e-2 7.245354578144569e-2 7.336489919600481e-2
      7.428771602532525e-2 7.522214046141416e-2 7.616831850999093e-2 7.712639801330040e-2
      7.809652867321446e-2 7.907886207462218e-2 8.007355170911628e-2 8.108075299897596e-2
      8.210062332145167e-2 8.313332203335651e-2 8.417901049596498e-2 8.523785210022696e-2
      8.631001229229753e-2 8.739565859938768e-2 8.849496065594201e-2 8.960809023014306e-2
      9.073522125075163e-2 9.187652983428304e-2 9.303219431252517e-2 9.420239526040424e-2
      9.538731552419886e-2 9.658714025011113e-2 9.780205691319569e-2 9.903225534665264e-2
      1.002779277714903e-1 1.015392688265592e-1 1.028164755989654e-1 1.041097476548660e-1
      1.054192870706503e-1 1.067452984645168e-1 1.080879890284432e-1 1.094475685605620e-1
      1.108242494979414e-1 1.122182469497784e-1 1.136297787310112e-1 1.150590653963522e-1
      1.165063302747508e-1 1.179717995042890e-1 1.194557020675151e-1 1.209582698272239e-1
      1.224797375626845e-1 1.240203430063263e-1 1.255803268808843e-1 1.271599329370125e-1
      1.287594079913712e-1 1.303790019651913e-1 1.320189679233266e-1 1.336795621137949e-1
      1.353610440078164e-1 1.370636763403585e-1 1.387877251511868e-1 1.405334598264358e-1
      1.423011531407005e-1 1.440910812996570e-1 1.459035239832225e-1 1.477387643892532e-1
      1.495970892777968e-1 1.514787890158974e-1 1.533841576229677e-1 1.553134928167294e-1
      1.572670960597312e-1 1.592452726064550e-1 1.612483315510103e-1 1.632765858754327e-1
      1.653303524985872e-1 1.674099523256866e-1 1.695157102984353e-1 1.716479554458003e-1
      1.738070209354241e-1 1.759932441256826e-1 1.782069666183964e-1 1.804485343122095e-1
      1.827182974566340e-1 1.850166107067794e-1 1.873438331787672e-1 1.897003285058429e-1
      1.920864648951963e-1 1.945026151854921e-1 1.969491569051294e-1 1.994264723312295e-1
      2.019349485493674e-1 2.044749775140564e-1 2.070469561099891e-1 2.096512862140543e-1
      2.122883747581296e-1 2.149586337926646e-1 2.176624805510669e-1 2.204003375148926e-1
      2.231726324798630e-1 2.259797986227070e-1 2.288222745688448e-1 2.317005044609270e-1
      2.346149380282292e-1 2.375660306569260e-1 2.405542434612453e-1 2.435800433555164e-1
      2.466439031271296e-1 2.497463015104069e-1 2.528877232614081e-1 2.560686592336733e-1
      2.592896064549191e-1 2.625510682047028e-1 2.658535540930572e-1 2.691975801401219e-1
      2.725836688567708e-1 2.760123493262538e-1 2.794841572868711e-1 2.829996352156789e-1
      2.865593324132563e-1 2.901638050895333e-1 2.938136164506978e-1 2.975093367872018e-1
      3.012515435628656e-1 3.050408215051122e-1 3.088777626963299e-1 3.127629666663850e-1
      3.166970404863036e-1 3.206805988631226e-1 3.247142642359438e-1 3.287986668731886e-1
      3.329344449710780e-1 3.371222447533551e-1 3.413627205722548e-1 3.456565350107518e-1
      3.500043589860885e-1 3.544068718546056e-1 3.588647615178969e-1 3.633787245302908e-1
      3.679494662076924e-1 3.725777007377885e-1 3.772641512916395e-1 3.820095501366803e-1
      3.868146387511339e-1 3.916801679398727e-1 3.966068979517323e-1 4.015955985982993e-1
      4.066470493742004e-1 4.117620395788955e-1 4.169413684400111e-1 4.221858452382200e-1
      4.274962894336904e-1 4.328735307941336e-1 4.383184095244506e-1 4.438317763980215e-1
      4.494144928896382e-1 4.550674313101089e-1 4.607914749425646e-1 4.665875181804668e-1
      4.724564666673642e-1 4.783992374383995e-1 4.844167590635945e-1 4.905099717929477e-1
      4.966798277033428e-1 5.029272908473196e-1 5.092533374037057e-1 5.156589558301442e-1
      5.221451470175484e-1 5.287129244464856e-1 5.353633143455424e-1 5.420973558516717e-1
      5.489161011725576e-1 5.558206157510313e-1 5.628119784315407e-1 5.698912816287301e-1
      5.770596314981277e-1 5.843181481089827e-1 5.916679656192855e-1 5.991102324529730e-1
      6.066461114793804e-1 6.142767801949387e-1 6.220034309071573e-1 6.298272709209320e-1
      6.377495227271805e-1 6.457714241938665e-1 6.538942287594161e-1 6.621192056285665e-1
      6.704476399706896e-1 6.788808331205930e-1 6.874201027818653e-1 6.960667832327657e-1
      7.048222255347039e-1 7.136877977433550e-1 7.226648851224112e-1 7.317548903600411e-1
      7.409592337880579e-1 7.502793536038461e-1 7.597167060950913e-1 7.692727658673183e-1
      7.789490260743095e-1 7.887469986514104e-1 7.986682145517675e-1 8.087142239855527e-1
      8.188865966621760e-1 8.291869220355657e-1 8.396168095525187e-1 8.501778889041766e-1
      8.608718102806774e-1 8.717002446289907e-1 8.826648839140148e-1 8.937674413829480e-1
      9.050096518329793e-1 9.163932718823681e-1 9.279200802449029e-1 9.395918780078444e-1
      9.514104889133407e-1 9.633777596433879e-1 9.754955601083880e-1 9.877657837393148e-1
      1.000190347783576e0 1.012771193604583e0 1.025510286985088e0 1.038409618434353e0
      1.051471203499157e0 1.064697083078743e0 1.078089323743705e0 1.091650018058890e0
      1.105381284910377e0 1.119285269836546e0 1.133364145363330e0 1.147620111343676e0
      1.162055395301269e0 1.176672252778600e0 1.191472967689384e0 1.206459852675440e0
      1.221635249468040e0 1.237001529253804e0 1.252561093045215e0 1.268316372055767e0
      1.284269828079863e0 1.300423953877466e0 1.316781273563593e0 1.333344343002729e0
      1.350115750208166e0 1.367098115746406e0 1.384294093146616e0 1.401706369315246e0
      1.419337664955878e0 1.437190734994322e0 1.455268369009096e0 1.473573391667296e0
      1.492108663165950e0 1.510877079678946e0 1.529881573809541e0 1.549125115048613e0
      1.568610710238633e0 1.588341404043489e0 1.608320279424235e0 1.628550458120791e0
      1.649035101139740e0 1.669777409248233e0 1.690780623474107e0 1.712048025612321e0
      1.733582938737723e0 1.755388727724305e0 1.777468799770963e0 1.799826604933870e0
      1.822465636665578e0 1.845389432360846e0 1.868601573909394e0 1.892105688255568e0
      1.915905447965048e0 1.940004571798716e0 1.964406825293694e0 1.989116021351741e0
      2.014136020835015e0 2.039470733169333e0 2.065124116955048e0 2.091100180585561e0
      2.117402982873667e0 2.144036633685740e0 2.171005294583900e0 2.198313179476286e0
      2.225964555275465e0 2.253963742565166e0 2.282315116275371e0 2.311023106365896e0
      2.340092198518609e0 2.369526934838289e0 2.399331914562379e0 2.429511794779602e0
      2.460071291157635e0 2.491015178679970e0 2.522348292391979e0 2.554075528156432e0
      2.586201843418470e0 2.618732257980207e0 2.651671854785110e0 2.685025780712186e0
      2.718799247380226e0 2.752997531962115e0 2.787625978009384e0 2.822689996287192e0
      2.858195065619722e0 2.894146733746298e0 2.930550618188214e0 2.967412407126468e0
      3.004737860290589e0 3.042532809858562e0 3.080803161368155e0 3.119554894639661e0
      3.158794064710233e0 3.198526802780037e0 3.238759317170224e0 3.279497894293026e0
      3.320748899634006e0 3.362518778746665e0 3.404814058259606e0 3.447641346896293e0
      3.491007336507713e0 3.534918803117979e0 3.579382607983073e0 3.624405698662981e0
      3.669995110107210e0 3.716157965754056e0 3.762901478643640e0 3.810232952544938e0
      3.858159783097057e0 3.906689458964765e0 3.955829563008657e0 4.005587773469975e0
      4.055971865170321e0 4.106989710726547e0 4.158649281780802e0 4.210958650246173e0
      4.263925989567913e0 4.317559576000543e0 4.371867789901072e0 4.426859117038400e0
      4.482542149919279e0 4.538925589130895e0 4.596018244700319e0 4.653829037471159e0
      4.712367000497384e0 4.771641280454821e0 4.831661139070318e0 4.892435954568877e0
      4.953975223139084e0 5.016288560416839e0 5.079385702987877e0 5.143276509909106e0
      5.207970964249077e0 5.273479174647921e0 5.339811376896771e0 5.406977935537191e0
      5.474989345480631e0 5.543856233648245e0 5.613589360631439e0 5.684199622373158e0
      5.755698051870467e0 5.828095820898449e0 5.901404241755790e0 5.975634769032416e0
      6.050799001399216e0 6.126908683420431e0 6.203975707388733e0 6.282012115183391e0
      6.361030100151909e0 6.441042009015183e0 6.522060343796765e0 6.604097763776314e0
      6.687167087467580e0 6.771281294621423e0 6.856453528253819e0 6.942697096699566e0
      7.030025475691712e0 7.118452310467121e0 7.207991417898655e0 7.298656788653997e0
      7.390462589381798e0 7.483423164925216e0 7.577553040563283e0 7.672866924280604e0
      7.769379709065398e0 7.867106475236660e0 7.966062492800443e0 8.066263223835792e0
      8.167724324910822e0 8.270461649528967e0 8.374491250606237e0 8.479829382979462e0
      8.586492505946110e0 8.694497285836185e0 8.803860598616245e0 8.914599532526433e0
      9.026731390750488e0 9.140273694119360e0 9.255244183848987e0 9.371660824312261e0
      9.489541805846128e0 9.608905547593798e0 9.729770700382733e0 9.852156149638992e0
      9.976081018337982e0 1.010156466999258e1 1.022862671167868e1 1.035728699709876e1
      1.048756562968422e1 1.061948296573642e1 1.075305961760752e1 1.088831645692116e1
      1.102527461783363e1 1.116395550033624e1 1.130438077359901e1 1.144657237935660e1
      1.159055253533671e1 1.173634373873161e1 1.188396876971349e1 1.203345069499374e1
      1.218481287142732e1 1.233807894966228e1 1.249327287783512e1 1.265041890531290e1
      1.280954158648210e1 1.297066578458539e1 1.313381667560658e1 1.329901975220426e1
      1.346630082769532e1 1.363568604008808e1 1.380720185616662e1 1.398087507562618e1
      1.415673283526060e1 1.433480261320265e1 1.451511223321737e1 1.469768986904975e1
      1.488256404882688e1 1.506976365951543e1 1.525931795143547e1 1.545125654283072e1
      1.564560942449662e1 1.584240696446636e1 1.604167991275589e1 1.624345940616888e1
      1.644777697316163e1 1.665466453876969e1 1.686415442959615e1 1.707627937886258e1
      1.729107253152396e1 1.750856744944731e1 1.772879811665610e1 1.795179894464017e1
      1.817760477773252e1 1.840625089855406e1 1.863777303352626e1 1.887220735845380e1
      1.910959050417694e1 1.934995956229508e1 1.959335209096266e1 1.983980612075741e1
      2.008936016062293e1 2.034205320388569e1 2.059792473434776e1 2.085701473245641e1
      2.111936368155090e1 2.138501257418830e1 2.165400291854861e1 2.192637674492031e1
      2.220217661226801e1 2.248144561488201e1 2.276422738911220e1 2.305056612018615e1
      2.334050654911308e1 2.363409397967499e1 2.393137428550511e1 2.423239391725611e1
      2.453719990985790e1 2.484583988986689e1 2.515836208290796e1 2.547481532120954e1
      2.579524905123397e1 2.611971334140353e1 2.644825888992362e1 2.678093703270471e1
      2.711779975138334e1 2.745889968144473e1 2.780429012044695e1 2.815402503634871e1
      2.850815907594226e1 2.886674757339168e1 2.922984655887929e1 2.959751276736036e1
      2.996980364742789e1 3.034677737028942e1 3.072849283885601e1 3.111500969694626e1
      3.150638833860571e1 3.190268991754324e1 3.230397635668698e1 3.271031035785934e1
      3.312175541157476e1 3.353837580696004e1 3.396023664179944e1 3.438740383270682e1
      3.481994412542473e1 3.525792510525395e1 3.570141520761375e1 3.615048372873476e1
      3.660520083648718e1 3.706563758134410e1 3.753186590748372e1 3.800395866403063e1