<?xml version="1.0" encoding="UTF-8"?>
<UPF version="2.0.1">
  <PP_INFO><![CDATA[
Generated using "atomic" code by A. Dal Corso  v.6.3MaX
Author: ADC
Generation date: 27May2022
Pseudopotential type: PAW
Element:  U
Functional:  SLA  PW   PBX  PBC
    Suggested minimum cutoff for wavefunctions:  93. Ry
    Suggested minimum cutoff for charge density: 683. Ry
    The Pseudo was generated with a Scalar-Relativistic Calculation
    Local Potential by smoothing AE potential with Bessel fncs, cutoff radius:   2.1000
    Pseudopotential contains additional information for GIPAW reconstruction.
    Valence configuration:
    nl pn  l   occ       Rcut    Rcut US       E pseu
    6S  1  0  2.00      1.200      1.400    -3.618410
    7S  2  0  2.00      1.200      1.400    -0.324993
    6P  2  1  6.00      1.300      2.200    -1.783596
    6D  3  2  1.50      2.000      2.200    -0.199385
    5F  4  3  2.50      1.000      1.300    -0.353104
    Generation configuration:
    6S  1  0  2.00      1.200      1.400    -3.618439
    7S  2  0  2.00      1.200      1.400    -0.324999
    6P  2  1  6.00      1.300      2.200    -1.783621
    7P  3  1  0.00      1.300      2.200     5.000000
    6D  3  2  1.50      2.000      2.200    -0.199403
    6D  3  2  0.00      2.000      2.200     4.800000
    5F  4  3  2.50      1.000      1.300    -0.353128
    5F  4  3  0.00      1.000      1.300    -0.500000
    Pseudization used: troullier-martins
]]>
    <PP_INPUTFILE><![CDATA[
 &input
   title='U',
   zed=92.0,
   rel=1,
   config='[Rn] 6d1.5 7s2.0 7p0. 5f2.5',
   iswitch=3,
   dft='PBE'
 /
 &inputp
   lpaw=.true.,
   pseudotype=3,
   file_pseudopw='U.pbe-spfn-kjpaw_psl.1.0.0.UPF',
   author='ADC',
   lloc=-1,
   rcloc=2.1,
   which_augfun='PSQ',
   rmatch_augfun_nc=.true.,
   nlcc=.true.,
   new_core_ps=.true.,
   rcore=1.5,
   tm=.true.
 /
8
6S  1  0  2.00  0.00  1.20  1.40  0.0
7S  2  0  2.00  0.00  1.20  1.40  0.0
6P  2  1  6.00  0.00  1.30  2.20  0.0
7P  3  1  0.00  5.00  1.30  2.20  0.0
6D  3  2  1.50  0.00  2.00  2.20  0.0
6D  3  2  0.00  4.80  2.00  2.20  0.0
5F  4  3  2.50  0.00  1.00  1.30  0.0
5F  4  3  0.00 -0.50  1.00  1.30  0.0
]]></PP_INPUTFILE>
  </PP_INFO>
  <!--
 END OF HUMAN READABLE SECTION 
-->
  <PP_HEADER generated="Generated using &quot;atomic&quot; code by A. Dal Corso  v.6.3MaX" author="ADC" date="27May2022" comment="" element=" U" pseudo_type="PAW" relativistic="scalar" is_ultrasoft="true" is_paw="true" is_coulomb="false" has_so="false" has_wfc="true" has_gipaw="true" paw_as_gipaw="true" core_correction="true" functional=" SLA  PW   PBX  PBC" z_valence="1.400000000000e1" total_psenergy="-1.027848892001e3" wfc_cutoff="9.325745830812e1" rho_cutoff="6.834522450049e2" l_max="3" l_max_rho="6" l_local="-1" mesh_size="1291" number_of_wfc="5" number_of_proj="8"/>
  <PP_MESH dx="1.250000000000e-2" mesh="1291" xmin="-7.000000000000e0" rmax="1.000000000000e2" zmesh="9.200000000000e1">
    <PP_R>
      9.911760495157784e-6 1.003643509422850e-5 1.016267790670198e-5 1.029050865827450e-5
      1.041994732276109e-5 1.055101412521640e-5 1.068372954509499e-5 1.081811431945121e-5
      1.095418944617946e-5 1.109197618729516e-5 1.123149607225692e-5 1.137277090133064e-5
      1.151582274899576e-5 1.166067396739453e-5 1.180734718982454e-5 1.195586533427520e-5
      1.210625160700873e-5 1.225852950618622e-5 1.241272282553921e-5 1.256885565808759e-5
      1.272695239990407e-5 1.288703775392623e-5 1.304913673381631e-5 1.321327466786973e-5
      1.337947720297262e-5 1.354777030860923e-5 1.371818028091972e-5 1.389073374680896e-5
      1.406545766810705e-5 1.424237934578217e-5 1.442152642420643e-5 1.460292689547529e-5
      1.478660910378146e-5 1.497260174984367e-5 1.516093389539129e-5 1.535163496770524e-5
      1.554473476421603e-5 1.574026345715974e-5 1.593825159829243e-5 1.613873012366398e-5
      1.634173035845188e-5 1.654728402185578e-5 1.675542323205381e-5 1.696618051122100e-5
      1.717958879061106e-5 1.739568141570179e-5 1.761449215140551e-5 1.783605518734485e-5
      1.806040514319493e-5 1.828757707409284e-5 1.851760647611493e-5 1.875052929182329e-5
      1.898638191588173e-5 1.922520120074261e-5 1.946702446240511e-5 1.971188948624581e-5
      1.995983453292290e-5 2.021089834435436e-5 2.046512014977149e-5 2.072253967184866e-5
      2.098319713290989e-5 2.124713326121377e-5 2.151438929731735e-5 2.178500700051999e-5
      2.205902865538842e-5 2.233649707836368e-5 2.261745562445141e-5 2.290194819399602e-5
      2.319001923954031e-5 2.348171377277124e-5 2.377707737155310e-5 2.407615618704910e-5
      2.437899695093265e-5 2.468564698268921e-5 2.499615419701017e-5 2.531056711127949e-5
      2.562893485315471e-5 2.595130716824319e-5 2.627773442787504e-5 2.660826763697373e-5
      2.694295844202563e-5 2.728185913914998e-5 2.762502268227021e-5 2.797250269138805e-5
      2.832435346096194e-5 2.868062996839045e-5 2.904138788260273e-5 2.940668357275682e-5
      2.977657411704748e-5 3.015111731162488e-5 3.053037167962514e-5 3.091439648031486e-5
      3.130325171835047e-5 3.169699815315399e-5 3.209569730840703e-5 3.249941148166370e-5
      3.290820375408495e-5 3.332213800029503e-5 3.374127889836204e-5 3.416569193990414e-5
      3.459544344032246e-5 3.503060054916332e-5 3.547123126061030e-5 3.591740442410851e-5
      3.636918975512252e-5 3.682665784602948e-5 3.728988017714929e-5 3.775892912791362e-5
      3.823387798817532e-5 3.871480096966011e-5 3.920177321756229e-5 3.969487082228635e-5
      4.019417083133622e-5 4.069975126135413e-5 4.121169111031095e-5 4.173007036984960e-5
      4.225497003778402e-5 4.278647213075526e-5 4.332465969704663e-5 4.386961682956041e-5
      4.442142867895724e-5 4.498018146696126e-5 4.554596249983238e-5 4.611886018200805e-5
      4.669896402991674e-5 4.728636468596488e-5 4.788115393270006e-5 4.848342470715219e-5
      4.909327111535506e-5 4.971078844705080e-5 5.033607319057877e-5 5.096922304795228e-5
      5.161033695012476e-5 5.225951507244766e-5 5.291685885032351e-5 5.358247099505490e-5
      5.425645550989366e-5 5.493891770629146e-5 5.562996422035491e-5 5.632970302950788e-5
      5.703824346936289e-5 5.775569625080516e-5 5.848217347729153e-5 5.921778866236657e-5
      5.996265674739969e-5 6.071689411954456e-5 6.148061862992510e-5 6.225394961204985e-5
      6.303700790045806e-5 6.382991584960056e-5 6.463279735295755e-5 6.544577786239737e-5
      6.626898440777867e-5 6.710254561679894e-5 6.794659173509306e-5 6.880125464658421e-5
      6.966666789409112e-5 7.054296670019443e-5 7.143028798836536e-5 7.232877040436058e-5
      7.323855433788551e-5 7.415978194453072e-5 7.509259716798404e-5 7.603714576252186e-5
      7.699357531578398e-5 7.796203527183367e-5 7.894267695450969e-5 7.993565359106997e-5
      8.094112033613412e-5 8.195923429592691e-5 8.299015455282568e-5 8.403404219021816e-5
      8.509106031767145e-5 8.616137409641842e-5 8.724515076516479e-5 8.834255966621969e-5
      8.945377227195685e-5 9.057896221160661e-5 9.171830529838621e-5 9.287197955697115e-5
      9.404016525131123e-5 9.522304491279815e-5 9.642080336878543e-5 9.763362777146865e-5
      9.886170762712853e-5 1.001052348257407e-4 1.013644036709601e-4 1.026394109104806e-4
      1.039304557667772e-4 1.052377399682358e-4 1.065614677806720e-4 1.079018460392501e-4
      1.092590841807998e-4 1.106333942765421e-4 1.120249910652255e-4 1.134340919866794e-4
      1.148609172157897e-4 1.163056896969014e-4 1.177686351786538e-4 1.192499822492553e-4
      1.207499623721990e-4 1.222688099224311e-4 1.238067622229715e-4 1.253640595819959e-4
      1.269409453303854e-4 1.285376658597458e-4 1.301544706609089e-4 1.317916123629141e-4
      1.334493467724830e-4 1.351279329139901e-4 1.368276330699348e-4 1.385487128219246e-4
      1.402914410921725e-4 1.420560901855161e-4 1.438429358319667e-4 1.456522572297916e-4
      1.474843370891406e-4 1.493394616762189e-4 1.512179208580176e-4 1.531200081476058e-4
      1.550460207499919e-4 1.569962596085639e-4 1.589710294521111e-4 1.609706388424391e-4
      1.629954002225839e-4 1.650456299656299e-4 1.671216484241460e-4 1.692237799802401e-4
      1.713523530962444e-4 1.735077003660393e-4 1.756901585670203e-4 1.779000687127220e-4
      1.801377761061006e-4 1.824036303934887e-4 1.846979856192292e-4 1.870212002809933e-4
      1.893736373857990e-4 1.917556645067300e-4 1.941676538403700e-4 1.966099822649600e-4
      1.990830313992845e-4 2.015871876623031e-4 2.041228423335262e-4 2.066903916141550e-4
      2.092902366889884e-4 2.119227837891086e-4 2.145884442553563e-4 2.172876346026025e-4
      2.200207765848304e-4 2.227882972610354e-4 2.255906290619537e-4 2.284282098576307e-4
      2.313014830258389e-4 2.342108975213562e-4 2.371569079461171e-4 2.401399746202439e-4
      2.431605636539739e-4 2.462191470204888e-4 2.493162026296623e-4 2.524522144027345e-4
      2.556276723479251e-4 2.588430726369988e-4 2.620989176827921e-4 2.653957162177178e-4
      2.687339833732543e-4 2.721142407604363e-4 2.755370165513582e-4 2.790028455617004e-4
      2.825122693342973e-4 2.860658362237534e-4 2.896641014821249e-4 2.933076273456792e-4
      2.969969831227454e-4 3.007327452826694e-4 3.045154975458893e-4 3.083458309751424e-4
      3.122243440678199e-4 3.161516428494834e-4 3.201283409685574e-4 3.241550597922143e-4
      3.282324285034620e-4 3.323610841994575e-4 3.365416719910531e-4 3.407748451035966e-4
      3.450612649789995e-4 3.494016013790877e-4 3.537965324902546e-4 3.582467450294279e-4
      3.627529343513705e-4 3.673158045573321e-4 3.719360686050655e-4 3.766144484202285e-4
      3.813516750091852e-4 3.861484885732279e-4 3.910056386242355e-4 3.959238841017853e-4
      4.009039934917392e-4 4.059467449463220e-4 4.110529264057075e-4 4.162233357211377e-4
      4.214587807795871e-4 4.267600796299980e-4 4.321280606111012e-4 4.375635624808462e-4
      4.430674345474589e-4 4.486405368021472e-4 4.542837400534774e-4 4.599979260634383e-4
      4.657839876852194e-4 4.716428290027215e-4 4.775753654718198e-4 4.835825240634078e-4
      4.896652434082372e-4 4.958244739435805e-4 5.020611780617404e-4 5.083763302604237e-4
      5.147709172950101e-4 5.212459383327335e-4 5.278024051088042e-4 5.344413420844955e-4
      5.411637866072168e-4 5.479707890726020e-4 5.548634130886350e-4 5.618427356418414e-4
      5.689098472655695e-4 5.760658522103891e-4 5.833118686166320e-4 5.906490286891032e-4
      5.980784788739919e-4 6.056013800380043e-4 6.132189076497538e-4 6.209322519634270e-4
      6.287426182047660e-4 6.366512267593865e-4 6.446593133634643e-4 6.527681292968256e-4
      6.609789415784562e-4 6.692930331644808e-4 6.777117031486245e-4 6.862362669651998e-4
      6.948680565946476e-4 7.036084207716581e-4 7.124587251959170e-4 7.214203527454960e-4
      7.304947036929321e-4 7.396831959240238e-4 7.489872651593759e-4 7.584083651787354e-4
      7.679479680481482e-4 7.776075643499698e-4 7.873886634157767e-4 7.972927935621970e-4
      8.073215023297164e-4 8.174763567244829e-4 8.277589434631558e-4 8.381708692208337e-4
      8.487137608820998e-4 8.593892657952249e-4 8.701990520295716e-4 8.811448086362308e-4
      8.922282459119435e-4 9.034510956663322e-4 9.148151114925042e-4 9.263220690410529e-4
      9.379737662975053e-4 9.497720238632651e-4 9.617186852400796e-4 9.738156171180947e-4
      9.860647096675278e-4 9.984678768340096e-4 1.011027056637647e-3 1.023744211475833e-3
      1.036621328429888e-3 1.049660419575531e-3 1.062863522297283e-3 1.076232699606808e-3
      1.089770040465258e-3 1.103477660109686e-3 1.117357700383548e-3 1.131412330071377e-3
      1.145643745237656e-3 1.160054169569959e-3 1.174645854726406e-3 1.189421080687489e-3
      1.204382156112326e-3 1.219531418699388e-3 1.234871235551780e-3 1.250404003547092e-3
      1.266132149711924e-3 1.282058131601115e-3 1.298184437681735e-3 1.314513587721921e-3
      1.331048133184586e-3 1.347790657626101e-3 1.364743777099971e-3 1.381910140565604e-3
      1.399292430302220e-3 1.416893362327953e-3 1.434715686824242e-3 1.452762188565549e-3
      1.471035687354486e-3 1.489539038462418e-3 1.508275133075601e-3 1.527246898746937e-3
      1.546457299853410e-3 1.565909338059275e-3 1.585606052785081e-3 1.605550521682575e-3
      1.625745861115599e-3 1.646195226647029e-3 1.666901813531831e-3 1.687868857216337e-3
      1.709099633843779e-3 1.730597460766199e-3 1.752365697062792e-3 1.774407744064765e-3
      1.796727045886810e-3 1.819327089965245e-3 1.842211407602937e-3 1.865383574521075e-3
      1.888847211417882e-3 1.912605984534364e-3 1.936663606227158e-3 1.961023835548596e-3
      1.985690478834074e-3 2.010667390296786e-3 2.035958472629968e-3 2.061567677616688e-3
      2.087499006747328e-3 2.113756511844822e-3 2.140344295697762e-3 2.167266512701469e-3
      2.194527369507124e-3 2.222131125679066e-3 2.250082094360356e-3 2.278384642946715e-3
      2.307043193768947e-3 2.336062224783920e-3 2.365446270274272e-3 2.395199921556891e-3
      2.425327827700325e-3 2.455834696251205e-3 2.486725293969810e-3 2.518004447574879e-3
      2.549677044497802e-3 2.581748033646284e-3 2.614222426177633e-3 2.647105296281747e-3
      2.680401781973985e-3 2.714117085897975e-3 2.748256476138549e-3 2.782825287044892e-3
      2.817828920064040e-3 2.853272844584863e-3 2.889162598792682e-3 2.925503790534607e-3
      2.962302098195790e-3 2.999563271586665e-3 3.037293132841385e-3 3.075497577327533e-3
      3.114182574567284e-3 3.153354169170167e-3 3.193018481777532e-3 3.233181710018921e-3
      3.273850129480460e-3 3.315030094685427e-3 3.356728040087173e-3 3.398950481074499e-3
      3.441704014989710e-3 3.484995322159467e-3 3.528831166938584e-3 3.573218398767002e-3
      3.618163953239995e-3 3.663674853191896e-3 3.709758209793412e-3 3.756421223662766e-3
      3.803671185990820e-3 3.851515479680313e-3 3.899961580499476e-3 3.949017058250126e-3
      3.998689577950460e-3 4.048986901032750e-3 4.099916886556054e-3 4.151487492434230e-3
      4.203706776679364e-3 4.256582898660859e-3 4.310124120380357e-3 4.364338807762683e-3
      4.419235431963036e-3 4.474822570690638e-3 4.531108909549005e-3 4.588103243393104e-3
      4.645814477703553e-3 4.704251629978124e-3 4.763423831140756e-3 4.823340326968260e-3
      4.884010479535018e-3 4.945443768675800e-3 5.007649793467023e-3 5.070638273726615e-3
      5.134419051532769e-3 5.199002092761784e-3 5.264397488645246e-3 5.330615457346809e-3
      5.397666345558802e-3 5.465560630118923e-3 5.534308919647275e-3 5.603921956203960e-3
      5.674410616967569e-3 5.745785915934758e-3 5.818059005641198e-3 5.891241178904210e-3
      5.965343870587247e-3 6.040378659386648e-3 6.116357269640828e-3 6.193291573162208e-3
      6.271193591092247e-3 6.350075495779739e-3 6.429949612682777e-3 6.510828422294628e-3
      6.592724562093841e-3 6.675650828518891e-3 6.759620178967612e-3 6.844645733821853e-3
      6.930740778497540e-3 7.017918765520566e-3 7.106193316628778e-3 7.195578224900371e-3
      7.286087456909128e-3 7.377735154906683e-3 7.470535639032306e-3 7.564503409550458e-3
      7.659653149116452e-3 7.755999725070684e-3 7.853558191761659e-3 7.952343792898281e-3
      8.052371963931716e-3 8.153658334467197e-3 8.256218730706184e-3 8.360069177919250e-3
      8.465225902950053e-3 8.571705336750835e-3 8.679524116949754e-3 8.788699090450574e-3
      8.899247316065027e-3 9.011186067178267e-3 9.124532834447907e-3 9.239305328536940e-3
      9.355521482881068e-3 9.473199456490853e-3 9.592357636789082e-3 9.713014642483866e-3
      9.835189326477824e-3 9.958900778813893e-3 1.008416832965819e-2 1.021101155232039e-2
      1.033945026631211e-2 1.046950454044372e-2 1.060119469596014e-2 1.073454130971611e-2
      1.086956521739130e-2 1.100628751674603e-2 1.114472957091771e-2 1.128491301175897e-2
      1.142685974321766e-2 1.157059194475934e-2 1.171613207483295e-2 1.186350287437991e-2
      1.201272737038748e-2 1.216382887948675e-2 1.231683101159594e-2 1.247175767360948e-2
      1.262863307313352e-2 1.278748172226838e-2 1.294832844143868e-2 1.311119836327153e-2
      1.327611693652359e-2 1.344310993005745e-2 1.361220343686810e-2 1.378342387816000e-2
      1.395679800747545e-2 1.413235291487491e-2 1.431011603116980e-2 1.449011513220873e-2
      1.467237834321744e-2 1.485693414319344e-2 1.504381136935600e-2 1.523303922165189e-2
      1.542464726731802e-2 1.561866544550137e-2 1.581512407193697e-2 1.601405384368495e-2
      1.621548584392686e-2 1.641945154682254e-2 1.662598282242804e-2 1.683511194167536e-2
      1.704687158141488e-2 1.726129482952113e-2 1.747841519006287e-2 1.769826658853817e-2
      1.792088337717531e-2 1.814630034030047e-2 1.837455269977274e-2 1.860567612048767e-2
      1.883970671594996e-2 1.907668105391629e-2 1.931663616210912e-2 1.955960953400228e-2
      1.980563913467945e-2 2.005476340676632e-2 2.030702127643720e-2 2.056245215949750e-2
      2.082109596754236e-2 2.108299311419299e-2 2.134818452141140e-2 2.161671162589448e-2
      2.188861638554866e-2 2.216394128604582e-2 2.244272934746182e-2 2.272502413099844e-2
      2.301086974578995e-2 2.330031085579521e-2 2.359339268677656e-2 2.389016103336634e-2
      2.419066226622249e-2 2.449494333927400e-2 2.480305179705765e-2 2.511503578214679e-2
      2.543094404267383e-2 2.575082593994719e-2 2.607473145616411e-2 2.640271120222053e-2
      2.673481642561903e-2 2.707109901847644e-2 2.741161152563206e-2 2.775640715285790e-2
      2.810553977517225e-2 2.845906394525763e-2 2.881703490198487e-2 2.917950857904427e-2
      2.954654161368527e-2 2.991819135556638e-2 3.029451587571578e-2 3.067557397560543e-2
      3.106142519633876e-2 3.145212982795393e-2 3.184774891884462e-2 3.224834428529857e-2
      3.265397852115687e-2 3.306471500759419e-2 3.348061792302208e-2 3.390175225311734e-2
      3.432818380097575e-2 3.475997919739429e-2 3.519720591128221e-2 3.563993226020297e-2
      3.608822742104947e-2 3.654216144085250e-2 3.700180524772628e-2 3.746723066195084e-2
      3.793851040719392e-2 3.841571812187471e-2 3.889892837066935e-2 3.938821665616240e-2
      3.988365943064398e-2 4.038533410805548e-2 4.089331907608602e-2 4.140769370842024e-2
      4.192853837714101e-2 4.245593446528756e-2 4.298996437957149e-2 4.353071156325358e-2
      4.407826050918127e-2 4.463269677299142e-2 4.519410698647838e-2 4.576257887113000e-2
      4.633820125183502e-2 4.692106407076135e-2 4.751125840141040e-2 4.810887646284715e-2
      4.871401163410940e-2 4.932675846879899e-2 4.994721270985533e-2 5.057547130451596e-2
      5.121163241946461e-2 5.185579545616959e-2 5.250806106641612e-2 5.316853116803268e-2
      5.383730896081644e-2 5.451449894265830e-2 5.520020692587045e-2 5.589454005372056e-2
      5.659760681717229e-2 5.730951707183793e-2 5.803038205514326e-2 5.876031440370833e-2
      5.949942817094787e-2 6.024783884489157e-2 6.100566336622995e-2 6.177302014658639e-2
      6.255002908701881e-2 6.333681159675520e-2 6.413349061216324e-2 6.494019061596001e-2
      6.575703765666251e-2 6.658415936828246e-2 6.742168499027034e-2 6.826974538770834e-2
      6.912847307175901e-2 6.999800222037025e-2 7.087846869924035e-2 7.177001008304820e-2
      7.267276567694861e-2 7.358687653833993e-2 7.451248549890416e-2 7.544973718692429e-2
      7.639877804988371e-2 7.735975637734780e-2 7.833282232413550e-2 7.931812793378084e-2
      8.031582716228968e-2 8.132607590219658e-2 8.234903200692226e-2 8.338485531543943e-2
      8.443370767724758e-2 8.549575297766186e-2 8.657115716342151e-2 8.766008826861821e-2
      8.876271644095269e-2 8.987921396832038e-2 9.100975530573114e-2 9.215451710256936e-2
      9.331367823019454e-2 9.448741980989134e-2 9.567592524116970e-2 9.687938023042106e-2
      9.809797281993621e-2 9.933189341728617e-2 1.005813348250749e-1 1.018464922710645e-1
      1.031275634386796e-1 1.044247484978969e-1 1.057382501365205e-1 1.070682735918541e-1
      1.084150266827688e-1 1.097787198421745e-1 1.111595661499023e-1 1.125577813659967e-1
      1.139735839644301e-1 1.154071951672393e-1 1.168588389790908e-1 1.183287422222842e-1
      1.198171345721914e-1 1.213242485931453e-1 1.228503197747781e-1 1.243955865688165e-1
      1.259602904263413e-1 1.275446758355132e-1 1.291489903597760e-1 1.307734846765385e-1
      1.324184126163421e-1 1.340840312025246e-1 1.357706006913784e-1 1.374783846128176e-1
      1.392076498115548e-1 1.409586664887949e-1 1.427317082444568e-1 1.445270521199216e-1
      1.463449786413229e-1 1.481857718633779e-1 1.500497194137728e-1 1.519371125381048e-1
      1.538482461453892e-1 1.557834188541407e-1 1.577429330390318e-1 1.597270948781406e-1
      1.617362144007918e-1 1.637706055359977e-1 1.658305861615128e-1 1.679164781535003e-1
      1.700286074368280e-1 1.721673040359939e-1 1.743329021266922e-1 1.765257400880311e-1
      1.787461605554028e-1 1.809945104740233e-1 1.832711411531418e-1 1.855764083209333e-1
      1.879106721800833e-1 1.902742974640684e-1 1.926676534941483e-1 1.950911142370724e-1
      1.975450583635116e-1 2.000298693072291e-1 2.025459353249893e-1 2.050936495572270e-1
      2.076734100894746e-1 2.102856200145633e-1 2.129306874956089e-1 2.156090258297862e-1
      2.183210535129094e-1 2.210671943048220e-1 2.238478772956091e-1 2.266635369726460e-1
      2.295146132884851e-1 2.324015517296016e-1 2.353248033860008e-1 2.382848250217008e-1
      2.412820791461050e-1 2.443170340862677e-1 2.473901640600731e-1 2.505019492503326e-1
      2.536528758798122e-1 2.568434362872092e-1 2.600741290040777e-1 2.633454588327280e-1
      2.666579369251019e-1 2.700120808626397e-1 2.734084147371565e-1 2.768474692327293e-1
      2.803297817086202e-1 2.838558962832391e-1 2.874263639191609e-1 2.910417425092191e-1
      2.947025969636729e-1 2.984094992984793e-1 3.021630287246706e-1 3.059637717388549e-1
      3.098123222148621e-1 3.137092814965330e-1 3.176552584916841e-1 3.216508697672498e-1
      3.256967396456198e-1 3.297935003021952e-1 3.339417918641623e-1 3.381422625105181e-1
      3.423955685733475e-1 3.467023746403750e-1 3.510633536588122e-1 3.554791870405019e-1
      3.599505647683947e-1 3.644781855043583e-1 3.690627566983430e-1 3.737049946989264e-1
      3.784056248652397e-1 3.831653816803102e-1 3.879850088658251e-1 3.928652594983362e-1
      3.978068961269352e-1 4.028106908923977e-1 4.078774256478369e-1 4.130078920808674e-1
      4.182028918373058e-1 4.234632366464350e-1 4.287897484478322e-1 4.341832595198037e-1
      4.396446126094286e-1 4.451746610642370e-1 4.507742689655523e-1 4.564443112635001e-1
      4.621856739137259e-1 4.679992540158256e-1 4.738859599535164e-1 4.798467115365792e-1
      4.858824401445745e-1 4.919940888723779e-1 4.981826126775382e-1 5.044489785294889e-1
      5.107941655606450e-1 5.172191652193881e-1 5.237249814249871e-1 5.303126307244615e-1
      5.369831424514151e-1 5.437375588868783e-1 5.505769354221595e-1 5.575023407237577e-1
      5.645148569003423e-1 5.716155796718310e-1 5.788056185406054e-1 5.860860969648648e-1
      5.934581525341764e-1 6.009229371472227e-1 6.084816171917843e-1 6.161353737269986e-1
      6.238854026678940e-1 6.317329149722607e-1 6.396791368298636e-1 6.477253098540325e-1
      6.558726912756745e-1 6.641225541397105e-1 6.724761875039987e-1 6.809348966407491e-1
      6.895000032404711e-1 6.981728456184994e-1 7.069547789240980e-1 7.158471753522141e-1
      7.248514243578827e-1 7.339689328733278e-1 7.432011255278068e-1 7.525494448702027e-1
      7.620153515944333e-1 7.716003247676841e-1 7.813058620615116e-1 7.911334799858668e-1
      8.010847141260417e-1 8.111611193826185e-1 8.213642702144204e-1 8.316957608845206e-1
      8.421572057093584e-1 8.527502393109691e-1 8.634765168724059e-1 8.743377143963620e-1
      8.853355289670450e-1 8.964716790153599e-1 9.077479045874052e-1 9.191659676163695e-1
      9.307276521978332e-1 9.424347648685314e-1 9.542891348886403e-1 9.662926145275906e-1
      9.784470793534979e-1 9.907544285262222e-1 1.003216585094107e0 1.015835496294476e0
      1.028613133857871e0 1.041551494316162e0 1.054652599314494e0 1.067918495927175e0
      1.081351256977543e0 1.094952981361838e0 1.108725794377170e0 1.122671848053596e0
      1.136793321490372e0 1.151092421196457e0 1.165571381435267e0 1.180232464573800e0
      1.195077961436126e0 1.210110191661330e0 1.225331504065971e0 1.240744277011077e0
      1.256350918773779e0 1.272153867923608e0 1.288155593703515e0 1.304358596415713e0
      1.320765407812337e0 1.337378591491049e0 1.354200743295603e0 1.371234491721437e0
      1.388482498326403e0 1.405947458146619e0 1.423632100117594e0 1.441539187500616e0
      1.459671518314517e0 1.478031925772882e0 1.496623278726725e0 1.515448482112774e0
      1.534510477407359e0 1.553812243086022e0 1.573356795088925e0 1.593147187292078e0
      1.613186511984528e0 1.633477900351533e0 1.654024522963800e0 1.674829590272923e0
      1.695896353112990e0 1.717228103208559e0 1.738828173688986e0 1.760699939609221e0
      1.782846818477196e0 1.805272270787784e0 1.827979800563537e0 1.850972955902186e0
      1.874255329531025e0 1.897830559368309e0 1.921702329091657e0 1.945874368713659e0
      1.970350455164689e0 1.995134412883043e0 2.020230114412547e0 2.045641481007614e0
      2.071372483245978e0 2.097427141649093e0 2.123809527310336e0 2.150523762531150e0
      2.177574021465129e0 2.204964530770270e0 2.232699570269384e0 2.260783473618811e0
      2.289220628985595e0 2.318015479733109e0 2.347172525115371e0 2.376696320980046e0
      2.406591480480295e0 2.436862674795623e0 2.467514633861719e0 2.498552147109553e0
      2.529980064213721e0 2.561803295850202e0 2.594026814463694e0 2.626655655044530e0
      2.659694915915439e0 2.693149759528155e0 2.727025413270050e0 2.761327170280949e0
      2.796060390280163e0 2.831230500403987e0 2.866842996053688e0 2.902903441754154e0
      2.939417472023402e0 2.976390792252941e0 3.013829179599282e0 3.051738483886625e0
      3.090124628520880e0 3.128993611415254e0 3.168351505927393e0 3.208204461808394e0
      3.248558706163702e0 3.289420544426085e0 3.330796361340919e0 3.372692621963765e0
      3.415115872670589e0 3.458072742180631e0 3.501569942592136e0 3.545614270431177e0
      3.590212607713575e0 3.635371923020272e0 3.681099272586169e0 3.727401801402656e0
      3.774286744334077e0 3.821761427248139e0 3.869833268160642e0 3.918509778394540e0
      3.967798563753575e0 4.017707325710752e0 4.068243862611654e0 4.119416070892995e0
      4.171231946316437e0 4.223699585217922e0 4.276827185772787e0 4.330623049276695e0
      4.385095581442773e0 4.440253293715005e0 4.496104804598139e0 4.552658841004394e0
      4.609924239617007e0 4.667909948271021e0 4.726625027351398e0 4.786078651208684e0
      4.846280109592582e0 4.907238809103430e0 4.968964274662054e0 5.031466150998039e0
      5.094754204156707e0 5.158838323025140e0 5.223728520877276e0 5.289434936938557e0
      5.355967837970183e0 5.423337619873283e0 5.491554809313364e0 5.560630065365046e0
      5.630574181177630e0 5.701398085661526e0 5.773112845195882e0 5.845729665357798e0
      5.919259892673146e0 5.993715016389552e0 6.069106670271587e0 6.145446634418534e0
      6.222746837105129e0 6.301019356645287e0 6.380276423279444e0 6.460530421085524e0
      6.541793889913937e0 6.624079527347044e0 6.707400190683083e0 6.791768898945227e0
      6.877198834915805e0 6.963703347196097e0 7.051295952292163e0 7.139990336726737e0
      7.229800359177846e0 7.320740052644233e0 7.412823626637994e0 7.506065469404938e0
      7.600480150172672e0 7.696082421427167e0 7.792887221217825e0 7.890909675491536e0
      7.990165100456238e0 8.090669004973989e0 8.192437092984362e0 8.295485265958170e0
      8.399829625382065e0 8.505486475274529e0 8.612472324733284e0 8.720803890514988e0
      8.830498099647217e0 8.941572092073287e0 9.054043223330529e0 9.167929067261994e0
      9.283247418762517e0 9.400016296559150e0 9.518253946026586e0 9.637978842038143e0
      9.759209691852373e0 9.881965438036220e0 1.000626526142479e1 1.013212858411835e1
      1.025957507251717e1 1.038862464039432e1 1.051929745200735e1 1.065161392524896e1
      1.078559473483724e1 1.092126081554633e1 1.105863336547730e1 1.119773384937059e1
      1.133858400195983e1 1.148120583136788e1 1.162562162254581e1 1.177185394075474e1
      1.191992563509194e1 1.206985984206093e1 1.222167998918653e1 1.237540979867567e1
      1.253107329112379e1 1.268869478926832e1 1.284829892178904e1 1.300991062715634e1
      1.317355515752803e1 1.333925808269486e1 1.350704529407604e1 1.367694300876475e1
      1.384897777362450e1 1.402317646943738e1 1.419956631510394e1 1.437817487189649e1
      1.455903004776543e1 1.474216010169988e1 1.492759364814340e1 1.511535966146484e1
      1.530548748048582e1 1.549800681306492e1 1.569294774073946e1 1.589034072342608e1
      1.609021660417985e1 1.629260661401383e1 1.649754237677883e1 1.670505591410470e1
      1.691517965040387e1 1.712794641793759e1 1.734338946194619e1 1.756154244584365e1
      1.778243945647747e1 1.800611500945505e1 1.823260405453656e1 1.846194198109611e1
      1.869416462365135e1 1.892930826746258e1 1.916740965420260e1 1.940850598769747e1
      1.965263493973982e1 1.989983465597513e1 2.015014376186194e1 2.040360136870736e1
      2.066024707977805e1 2.092012099648856e1 2.118326372466712e1 2.144971638090031e1
      2.171952059895784e1 2.199271853629762e1 2.226935288065324e1 2.254946685670384e1
      2.283310423282802e1 2.312030932794292e1 2.341112701842892e1 2.370560274514184e1
      2.400378252051317e1 2.430571293573935e1 2.461144116806214e1 2.492101498813977e1
      2.523448276751149e1 2.555189348615563e1 2.587329674014267e1 2.619874274938504e1
      2.652828236548371e1 2.686196707967419e1 2.719984903087202e1 2.754198101381939e1
      2.788841648733482e1 2.823920958266577e1 2.859441511194713e1 2.895408857676557e1
      2.931828617683163e1 2.968706481876139e1 3.006048212496783e1 3.043859644266482e1
      3.082146685298384e1 3.120915318020534e1 3.160171600110683e1 3.199921665442762e1
      3.240171725045357e1 3.280928068072177e1 3.322197062784728e1 3.363985157547407e1
      3.406298881835028e1 3.449144847253104e1 3.492529748570910e1 3.536460364767531e1
      3.580943560091137e1 3.625986285131487e1 3.671595577906016e1 3.717778564959519e1