<?xml version="1.0" encoding="UTF-8"?>
<UPF version="2.0.1">
  <PP_INFO><![CDATA[
Generated using "atomic" code by A. Dal Corso  v.6.3MaX
Author: ADC
Generation date: 27May2022
Pseudopotential type: PAW
Element: Cd
Functional:  SLA  PW   PBX  PBC
    Suggested minimum cutoff for wavefunctions:  37. Ry
    Suggested minimum cutoff for charge density: 638. Ry
    The Pseudo was generated with a Scalar-Relativistic Calculation
    Local Potential by smoothing AE potential with Bessel fncs, cutoff radius:   2.4000
    Pseudopotential contains additional information for GIPAW reconstruction.
    Valence configuration:
    nl pn  l   occ       Rcut    Rcut US       E pseu
    5S  1  0  2.00      1.600      2.300    -0.507117
    5P  2  1  0.50      1.600      2.300    -0.139895
    4D  3  2  9.50      0.750      1.800    -1.069765
    Generation configuration:
    5S  1  0  2.00      1.600      2.300    -0.507115
    5S  1  0  0.00      1.600      2.300     6.000000
    5P  2  1  0.50      1.600      2.300    -0.139895
    5P  2  1  0.00      1.600      2.300     8.000000
    4D  3  2  9.50      0.750      1.800    -1.069763
    4D  3  2  0.00      0.750      1.800     4.300000
    Pseudization used: troullier-martins
]]>
    <PP_INPUTFILE><![CDATA[
 &input
   title='Cd',
   zed=48.,
   rel=1,
   config='[Kr] 5s2 5p0.5 4d9.5',
   iswitch=3,
   dft='PBE'
 /
 &inputp
   lpaw=.true.,
   pseudotype=3,
   file_pseudopw='Cd.pbe-n-kjpaw_psl.1.0.0.UPF',
   author='ADC',
   lloc=-1,
   rcloc=2.4,
   which_augfun='PSQ',
   rmatch_augfun_nc=.true.,
   nlcc=.true.,
   new_core_ps=.true.,
   rcore=1.8,
   tm=.true.
 /
6
5S  1  0  2.00  0.00  1.60  2.30  0.0
5S  1  0  0.00  6.00  1.60  2.30  0.0
5P  2  1  0.50  0.00  1.60  2.30  0.0
5P  2  1  0.00  8.00  1.60  2.30  0.0
4D  3  2  9.50  0.00  0.75  1.80  0.0
4D  3  2  0.00  4.30  0.75  1.80  0.0
]]></PP_INPUTFILE>
  </PP_INFO>
  <!--
 END OF HUMAN READABLE SECTION 
-->
  <PP_HEADER generated="Generated using &quot;atomic&quot; code by A. Dal Corso  v.6.3MaX" author="ADC" date="27May2022" comment="" element="Cd" pseudo_type="PAW" relativistic="scalar" is_ultrasoft="true" is_paw="true" is_coulomb="false" has_so="false" has_wfc="true" has_gipaw="true" paw_as_gipaw="true" core_correction="true" functional=" SLA  PW   PBX  PBC" z_valence="1.200000000000e1" total_psenergy="-3.813379758183e2" wfc_cutoff="3.711761787827e1" rho_cutoff="6.375769706960e2" l_max="2" l_max_rho="4" l_local="-1" mesh_size="1239" number_of_wfc="3" number_of_proj="6"/>
  <PP_MESH dx="1.250000000000e-2" mesh="1239" xmin="-7.000000000000e0" rmax="1.000000000000e2" zmesh="4.800000000000e1">
    <PP_R>
      1.899754094905242e-5 1.923650059727130e-5 1.947846598784546e-5 1.972347492835946e-5
      1.997156570195875e-5 2.022277707333143e-5 2.047714829476539e-5 2.073471911228149e-5
      2.099552977184397e-5 2.125962102564906e-5 2.152703413849244e-5 2.179781089421705e-5
      2.207199360224188e-5 2.234962510417285e-5 2.263074878049704e-5 2.291540855736080e-5
      2.320364891343341e-5 2.349551488685692e-5 2.379105208228349e-5 2.409030667800120e-5
      2.439332543314947e-5 2.470015569502527e-5 2.501084540648127e-5 2.532544311341697e-5
      2.564399797236419e-5 2.596655975816770e-5 2.629317887176280e-5 2.662390634805051e-5
      2.695879386387184e-5 2.729789374608250e-5 2.764125897972900e-5 2.798894321632765e-5
      2.834100078224779e-5 2.869748668720036e-5 2.905845663283331e-5 2.942396702143503e-5
      2.979407496474739e-5 3.016883829288949e-5 3.054831556339381e-5 3.093256607035597e-5
      3.132164985369942e-5 3.171562770855691e-5 3.211456119476980e-5 3.251851264650691e-5
      3.292754518200453e-5 3.334172271342842e-5 3.376110995686055e-5 3.418577244241096e-5
      3.461577652445696e-5 3.505118939201127e-5 3.549207907922028e-5 3.593851447599463e-5
      3.639056533877333e-5 3.684830230142334e-5 3.731179688627645e-5 3.778112151530448e-5
      3.825634952143557e-5 3.873755516001252e-5 3.922481362039536e-5 3.971820103770993e-5
      4.021779450474394e-5 4.072367208399306e-5 4.123591281985827e-5 4.175459675099664e-5
      4.227980492282779e-5 4.281161940019707e-5 4.335012328019853e-5 4.389540070515904e-5
      4.444753687578559e-5 4.500661806447822e-5 4.557273162881010e-5 4.614596602517743e-5
      4.672641082262091e-5 4.731415671682099e-5 4.790929554426951e-5 4.851192029661904e-5
      4.912212513521318e-5 4.974000540579945e-5 5.036565765342717e-5 5.099917963753299e-5
      5.164067034721580e-5 5.229023001670415e-5 5.294796014101788e-5 5.361396349182709e-5
      5.428834413351038e-5 5.497120743941504e-5 5.566266010832189e-5 5.636281018111722e-5
      5.707176705767435e-5 5.778964151394767e-5 5.851654571928152e-5 5.925259325393682e-5
      5.999789912683839e-5 6.075257979354516e-5 6.151675317444680e-5 6.229053867318875e-5
      6.307405719532949e-5 6.386743116723213e-5 6.467078455519393e-5 6.548424288481626e-5
      6.630793326061807e-5 6.714198438589638e-5 6.798652658283643e-5 6.884169181287461e-5
      6.970761369731817e-5 7.058442753822315e-5 7.147227033953612e-5 7.237128082850113e-5
      7.328159947733601e-5 7.420336852518186e-5 7.513673200032772e-5 7.608183574271549e-5
      7.703882742672775e-5 7.800785658426208e-5 7.898907462809600e-5 7.998263487554508e-5
      8.098869257241937e-5 8.200740491728089e-5 8.303893108600606e-5 8.408343225665748e-5
      8.514107163466804e-5 8.621201447834242e-5 8.729642812467874e-5 8.839448201551543e-5
      8.950634772400710e-5 9.063219898143268e-5 9.177221170434178e-5 9.292656402204170e-5
      9.409543630443054e-5 9.527901119018070e-5 9.647747361527594e-5 9.769101084190856e-5
      9.891981248773913e-5 1.001640705555247e-4 1.014239794631201e-4 1.026997360738553e-4
      1.039915397272962e-4 1.052995922703920e-4 1.066240980890136e-4 1.079652641398901e-4
      1.093232999829455e-4 1.106984178140432e-4 1.120908324981421e-4 1.135007616028693e-4
      1.149284254325161e-4 1.163740470624604e-4 1.178378523740231e-4 1.193200700897622e-4
      1.208209318092113e-4 1.223406720450678e-4 1.238795282598353e-4 1.254377409029283e-4
      1.270155534482425e-4 1.286132124321979e-4 1.302309674922617e-4 1.318690714059531e-4
      1.335277801303413e-4 1.352073528420393e-4 1.369080519777003e-4 1.386301432750245e-4
      1.403738958142806e-4 1.421395820603506e-4 1.439274779053028e-4 1.457378627115002e-4
      1.475710193552526e-4 1.494272342710145e-4 1.513067974961436e-4 1.532100027162174e-4
      1.551371473109237e-4 1.570885324005266e-4 1.590644628929159e-4 1.610652475312515e-4
      1.630911989422036e-4 1.651426336848020e-4 1.672198722998992e-4 1.693232393602544e-4
      1.714530635212506e-4 1.736096775722460e-4 1.757934184885736e-4 1.780046274841948e-4
      1.802436500650132e-4 1.825108360828631e-4 1.848065397901720e-4 1.871311198953149e-4
      1.894849396186630e-4 1.918683667493363e-4 1.942817737026735e-4 1.967255375784211e-4
      1.992000402196563e-4 2.017056682724519e-4 2.042428132462881e-4 2.068118715752294e-4
      2.094132446798664e-4 2.120473390300389e-4 2.147145662083489e-4 2.174153429744688e-4
      2.201500913302637e-4 2.229192385857277e-4 2.257232174257532e-4 2.285624659777393e-4
      2.314374278800480e-4 2.343485523513263e-4 2.372962942606954e-4 2.402811141988254e-4
      2.433034785499053e-4 2.463638595645128e-4 2.494627354334088e-4 2.526005903622520e-4
      2.557779146472591e-4 2.589952047518145e-4 2.622529633840416e-4 2.655516995753556e-4
      2.688919287599973e-4 2.722741728555725e-4 2.756989603446030e-4 2.791668263571006e-4
      2.826783127541861e-4 2.862339682127530e-4 2.898343483112003e-4 2.934800156162445e-4
      2.971715397708179e-4 3.009094975830808e-4 3.046944731165463e-4 3.085270577813417e-4
      3.124078504266191e-4 3.163374574341238e-4 3.203164928129465e-4 3.243455782954602e-4
      3.284253434344685e-4 3.325564257015755e-4 3.367394705867890e-4 3.409751316993839e-4
      3.452640708700261e-4 3.496069582541867e-4 3.540044724368558e-4 3.584573005385705e-4
      3.629661383227816e-4 3.675316903045658e-4 3.721546698607090e-4 3.768357993411731e-4
      3.815758101819621e-4 3.863754430194143e-4 3.912354478059252e-4 3.961565839271304e-4
      4.011396203205611e-4 4.061853355957917e-4 4.112945181560995e-4 4.164679663216548e-4
      4.217064884542581e-4 4.270109030836512e-4 4.323820390354113e-4 4.378207355604590e-4
      4.433278424661911e-4 4.489042202492660e-4 4.545507402300577e-4 4.602682846888008e-4
      4.660577470034500e-4 4.719200317892702e-4 4.778560550401861e-4 4.838667442719078e-4
      4.899530386668564e-4 4.961158892209141e-4 5.023562588920182e-4 5.086751227506258e-4
      5.150734681320708e-4 5.215522947908364e-4 5.281126150567697e-4 5.347554539932591e-4
      5.414818495574031e-4 5.482928527621940e-4 5.551895278407393e-4 5.621729524125518e-4
      5.692442176519284e-4 5.764044284584497e-4 5.836547036296214e-4 5.909961760356896e-4
      5.984299927966549e-4 6.059573154615100e-4 6.135793201897353e-4 6.212971979350773e-4
      6.291121546316354e-4 6.370254113822936e-4 6.450382046495186e-4 6.531517864485602e-4
      6.613674245430824e-4 6.696864026432515e-4 6.781100206063215e-4 6.866395946397369e-4
      6.952764575067932e-4 7.040219587348866e-4 7.128774648263756e-4 7.218443594721046e-4
      7.309240437676050e-4 7.401179364320201e-4 7.494274740297847e-4 7.588541111950882e-4
      7.683993208591668e-4 7.780645944804504e-4 7.878514422776060e-4 7.977613934655138e-4
      8.077959964942085e-4 8.179568192908295e-4 8.282454495046109e-4 8.386634947549554e-4
      8.492125828826296e-4 8.598943622041155e-4 8.707105017691649e-4 8.816626916215899e-4
      8.927526430633373e-4 9.039820889218827e-4 9.153527838209879e-4 9.268665044548651e-4
      9.385250498657880e-4 9.503302417251959e-4 9.622839246183359e-4 9.743879663324789e-4
      9.866442581487695e-4 9.990547151377392e-4 1.011621276458541e-3 1.024345905661949e-3
      1.037230590997166e-3 1.050277345722487e-3 1.063488208419884e-3 1.076865243313530e-3
      1.090410540592341e-3 1.104126216736579e-3 1.118014414848545e-3 1.132077304987448e-3
      1.146317084508484e-3 1.160735978406175e-3 1.175336239662028e-3 1.190120149596569e-3
      1.205090018225802e-3 1.220248184622157e-3 1.235597017279973e-3 1.251138914485582e-3
      1.266876304692041e-3 1.282811646898588e-3 1.298947431034864e-3 1.315286178349966e-3
      1.331830441806408e-3 1.348582806479012e-3 1.365545889958841e-3 1.382722342762201e-3
      1.400114848744787e-3 1.417726125521046e-3 1.435558924888804e-3 1.453616033259243e-3
      1.471900272092284e-3 1.490414498337442e-3 1.509161604880239e-3 1.528144520994211e-3
      1.547366212798623e-3 1.566829683721926e-3 1.586537974971048e-3 1.606494166006598e-3
      1.626701375024024e-3 1.647162759440848e-3 1.667881516390012e-3 1.688860883219442e-3
      1.710104137997892e-3 1.731614600027137e-3 1.753395630360633e-3 1.775450632328685e-3
      1.797783052070219e-3 1.820396379071258e-3 1.843294146710153e-3 1.866479932809682e-3
      1.889957360196095e-3 1.913730097265185e-3 1.937801858555489e-3 1.962176405328681e-3
      1.986857546157285e-3 2.011849137519768e-3 2.037155084403126e-3 2.062779340913048e-3
      2.088725910891745e-3 2.114998848543564e-3 2.141602259068467e-3 2.168540299303471e-3
      2.195817178372174e-3 2.223437158342421e-3 2.251404554892277e-3 2.279723737984354e-3
      2.308399132548625e-3 2.337435219173828e-3 2.366836534807579e-3 2.396607673465259e-3
      2.426753286947855e-3 2.457278085568804e-3 2.488186838889992e-3 2.519484376467014e-3
      2.551175588603790e-3 2.583265427116694e-3 2.615758906108278e-3 2.648661102750742e-3
      2.681977158079255e-3 2.715712277795244e-3 2.749871733079797e-3 2.784460861417303e-3
      2.819485067429431e-3 2.854949823719635e-3 2.890860671728235e-3 2.927223222598295e-3
      2.964043158052368e-3 3.001326231280276e-3 3.039078267838071e-3 3.077305166558268e-3
      3.116012900471565e-3 3.155207517740139e-3 3.194895142602677e-3 3.235081976331313e-3
      3.275774298200576e-3 3.316978466468549e-3 3.358700919370351e-3 3.400948176124134e-3
      3.443726837949720e-3 3.487043589100054e-3 3.530905197905629e-3 3.575318517832060e-3
      3.620290488550940e-3 3.665828137024199e-3 3.711938578602052e-3 3.758629018134810e-3
      3.805906751098641e-3 3.853779164735506e-3 3.902253739207438e-3 3.951338048765320e-3
      4.001039762932379e-3 4.051366647702576e-3 4.102326566754043e-3 4.153927482677816e-3
      4.206177458221989e-3 4.259084657551544e-3 4.312657347524017e-3 4.366903898981205e-3
      4.421832788057148e-3 4.477452597502513e-3 4.533772018025688e-3 4.590799849650708e-3
      4.648545003092288e-3 4.707016501148144e-3 4.766223480108803e-3 4.826175191185184e-3
      4.886881001954121e-3 4.948350397822044e-3 5.010592983507128e-3 5.073618484540017e-3
      5.137436748783470e-3 5.202057747971120e-3 5.267491579265551e-3 5.333748466836044e-3
      5.400838763456075e-3 5.468772952120987e-3 5.537561647685974e-3 5.607215598524663e-3
      5.677745688208597e-3 5.749162937207775e-3 5.821478504612655e-3 5.894703689877772e-3
      5.968849934587293e-3 6.043928824242820e-3 6.119952090073602e-3 6.196931610869598e-3
      6.274879414837548e-3 6.353807681480401e-3 6.433728743500415e-3 6.514655088726123e-3
      6.596599362063613e-3 6.679574367472309e-3 6.763593069965619e-3 6.848668597636753e-3
      6.934814243709992e-3 7.022043468617801e-3 7.110369902104040e-3 7.199807345353636e-3
      7.290369773149072e-3 7.382071336053935e-3 7.474926362623996e-3 7.568949361646072e-3
      7.664155024405050e-3 7.760558226979439e-3 7.858174032565772e-3 7.957017693832274e-3
      8.057104655302116e-3 8.158450555766645e-3 8.261071230729019e-3 8.364982714878476e-3
      8.470201244595820e-3 8.576743260490392e-3 8.684625409968925e-3 8.793864549836783e-3
      8.904477748931807e-3 9.016482290791405e-3 9.129895676353117e-3 9.244735626689165e-3
      9.361020085775452e-3 9.478767223295286e-3 9.597995437478460e-3 9.718723357976014e-3
      9.840969848771140e-3 9.964754011126754e-3 1.009009518657006e-2 1.021701295991472e-2
      1.034552716232104e-2 1.047565787439460e-2 1.060742542932394e-2 1.074085041605759e-2
      1.087595368252117e-2 1.101275633887495e-2 1.115127976081230e-2 1.129154559289973e-2
      1.143357575195889e-2 1.157739243049108e-2 1.172301810014492e-2 1.187047551522756e-2
      1.201978771626014e-2 1.217097803357783e-2 1.232407009097532e-2 1.247908780939804e-2
      1.263605541067987e-2 1.279499742132787e-2 1.295593867635459e-2 1.311890432315855e-2
      1.328391982545362e-2 1.345101096724775e-2 1.362020385687182e-2 1.379152493105904e-2
      1.396500095907583e-2 1.414065904690447e-2 1.431852664147859e-2 1.449863153497171e-2
      1.468100186913987e-2 1.486566613971881e-2 1.505265320087652e-2 1.524199226972170e-2
      1.543371293086913e-2 1.562784514106212e-2 1.582441923385352e-2 1.602346592434523e-2
      1.622501631398760e-2 1.642910189543910e-2 1.663575455748703e-2 1.684500659003027e-2
      1.705689068912464e-2 1.727143996209167e-2 1.748868793269182e-2 1.770866854636247e-2
      1.793141617552205e-2 1.815696562494080e-2 1.838535213717907e-2 1.861661139809408e-2
      1.885077954241583e-2 1.908789315939330e-2 1.932798929851153e-2 1.957110547528075e-2
      1.981727967709821e-2 2.006655036918379e-2 2.031895650059028e-2 2.057453751028921e-2
      2.083333333333333e-2 2.109538440709656e-2 2.136073167759228e-2 2.162941660587137e-2
      2.190148117450051e-2 2.217696789412207e-2 2.245591981009650e-2 2.273838050922817e-2
      2.302439412657600e-2 2.331400535234961e-2 2.360725943889222e-2 2.390420220775151e-2
      2.420488005683924e-2 2.450933996768106e-2 2.481762951275748e-2 2.512979686293710e-2
      2.544589079500355e-2 2.576596069927677e-2 2.609005658733052e-2 2.641822909980667e-2
      2.675052951432795e-2 2.708700975351024e-2 2.742772239307546e-2 2.777272067006674e-2
      2.812205849116675e-2 2.847579044112076e-2 2.883397179126566e-2 2.919665850816612e-2
      2.956390726235954e-2 2.993577543721094e-2 3.031232113787920e-2 3.069360320039616e-2
      3.107968120085981e-2 3.147061546474319e-2 3.186646707632041e-2 3.226729788821111e-2
      3.267317053104519e-2 3.308414842324883e-2 3.350029578095382e-2 3.392167762803147e-2
      3.434835980625267e-2 3.478040898557589e-2 3.521789267456441e-2 3.566087923093470e-2
      3.610943787223742e-2 3.656363868667289e-2 3.702355264404247e-2 3.748925160683769e-2
      3.796080834146895e-2 3.843829652963544e-2 3.892179077983796e-2 3.941136663903688e-2
      3.990710060445618e-2 4.040907013553657e-2 4.091735366603851e-2 4.143203061629775e-2
      4.195318140563495e-2 4.248088746492115e-2 4.301523124930182e-2 4.355629625108035e-2
      4.410416701276406e-2 4.465892914027416e-2 4.522066931632173e-2 4.578947531395214e-2
      4.636543601025977e-2 4.694864140027518e-2 4.753918261102717e-2 4.813715191578135e-2
      4.874264274845816e-2 4.935574971823212e-2 4.997656862431454e-2 5.060519647092267e-2
      5.124173148243647e-2 5.188627311874651e-2 5.253892209079478e-2 5.319978037631098e-2
      5.386895123574681e-2 5.454653922841045e-2 5.523265022880432e-2 5.592739144316817e-2
      5.663087142623011e-2 5.734320009816890e-2 5.806448876178858e-2 5.879485011991040e-2
      5.953439829298262e-2 6.028324883691170e-2 6.104151876111885e-2 6.180932654682226e-2
      6.258679216555068e-2 6.337403709788887e-2 6.417118435245898e-2 6.497835848514156e-2
      6.579568561853685e-2 6.662329346167239e-2 6.746131132995758e-2 6.830987016538903e-2
      6.916910255701149e-2 7.003914276163396e-2 7.092012672480870e-2 7.181219210207245e-2
      7.271547828045504e-2 7.363012640025985e-2 7.455627937711626e-2 7.549408192431128e-2
      7.644368057540097e-2 7.740522370710633e-2 7.837886156249823e-2 7.936474627447215e-2
      8.036303188952028e-2 8.137387439180115e-2 8.239743172751202e-2 8.343386382956936e-2
      8.448333264259743e-2 8.554600214823356e-2 8.662203839075023e-2 8.771160950299917e-2
      8.881488573268379e-2 8.993203946895926e-2 9.106324526936993e-2 9.220867988712371e-2
      9.336852229870967e-2 9.454295373186474e-2 9.573215769388938e-2 9.693632000032226e-2
      9.815562880397383e-2 9.939027462432504e-2 1.006404503772976e-1 1.019063514053960e-1
      1.031881755082315e-1 1.044861229734284e-1 1.058003966079184e-1 1.071312017696311e-1
      1.084787463995802e-1 1.098432410543560e-1 1.112248989390246e-1 1.126239359404410e-1
      1.140405706609835e-1 1.154750244527088e-1 1.169275214519407e-1 1.183982886142906e-1
      1.198875557501194e-1 1.213955555604475e-1 1.229225236733129e-1 1.244686986805900e-1
      1.260343221752698e-1 1.276196387892080e-1 1.292248962313515e-1 1.308503453264410e-1
      1.324962400542048e-1 1.341628375890430e-1 1.358503983402107e-1 1.375591859925090e-1
      1.392894675474848e-1 1.410415133651515e-1 1.428155972062330e-1 1.446119962749382e-1
      1.464309912622771e-1 1.482728663899166e-1 1.501379094545930e-1 1.520264118730799e-1
      1.539386687277219e-1 1.558749788125434e-1 1.578356446799344e-1 1.598209726879256e-1
      1.618312730480579e-1 1.638668598738519e-1 1.659280512298913e-1 1.680151691815182e-1
      1.701285398451593e-1 1.722684934392807e-1 1.744353643359847e-1 1.766294911132580e-1
      1.788512166078728e-1 1.811008879689584e-1 1.833788567122419e-1 1.856854787749737e-1
      1.880211145715444e-1 1.903861290497985e-1 1.927808917480602e-1 1.952057768528737e-1
      1.976611632574693e-1 2.001474346209690e-1 2.026649794283310e-1 2.052141910510538e-1
      2.077954678086401e-1 2.104092130308345e-1 2.130558351206461e-1 2.157357476181603e-1
      2.184493692651577e-1 2.211971240705419e-1 2.239794413765907e-1 2.267967559260447e-1
      2.296495079300334e-1 2.325381431368617e-1 2.354631129016581e-1 2.384248742568984e-1
      2.414238899838209e-1 2.444606286847336e-1 2.475355648562374e-1 2.506491789633654e-1
      2.538019575146557e-1 2.569943931381722e-1 2.602269846584753e-1 2.635002371745671e-1
      2.668146621388134e-1 2.701707774368570e-1 2.735691074685423e-1 2.770101832298498e-1
      2.804945423958690e-1 2.840227294048076e-1 2.875952955430645e-1 2.912127990313676e-1
      2.948758051119960e-1 2.985848861371031e-1 3.023406216581443e-1 3.061435985164363e-1
      3.099944109348511e-1 3.138936606106623e-1 3.178419568095662e-1 3.218399164608756e-1
      3.258881642539202e-1 3.299873327356548e-1 3.341380624094932e-1 3.383410018353929e-1
      3.425968077311888e-1 3.469061450752113e-1 3.512696872101885e-1 3.556881159484555e-1
      3.601621216784930e-1 3.646924034727977e-1 3.692796691971176e-1 3.739246356210553e-1
      3.786280285300639e-1 3.833905828388557e-1 3.882130427062295e-1 3.930961616513517e-1
      3.980407026714931e-1 4.030474383612462e-1 4.081171510332505e-1 4.132506328404236e-1
      4.184486858997431e-1 4.237121224175755e-1 4.290417648165841e-1 4.344384458642383e-1
      4.399030088029297e-1 4.454363074817363e-1 4.510392064898349e-1 4.567125812915932e-1
      4.624573183633681e-1 4.682743153320130e-1 4.741644811151402e-1 4.801287360631375e-1
      4.861680121029734e-1 4.922832528838176e-1 4.984754139244823e-1 5.047454627627287e-1
      5.110943791064453e-1 5.175231549867259e-1 5.240327949128832e-1 5.306243160293978e-1
      5.372987482748554e-1 5.440571345428749e-1 5.509005308450584e-1 5.578300064760032e-1
      5.648466441803731e-1 5.719515403220853e-1 5.791458050556185e-1 5.864305624994720e-1
      5.938069509118192e-1 6.012761228683549e-1 6.088392454423946e-1 6.164975003872287e-1
      6.242520843207714e-1 6.321042089125408e-1 6.400551010729778e-1 6.481060031451596e-1
      6.562581730989160e-1 6.645128847273854e-1 6.728714278460567e-1 6.813351084942952e-1
      6.899052491394232e-1 6.985831888833535e-1 7.073702836718240e-1 7.162679065062756e-1
      7.252774476583760e-1 7.344003148872612e-1 7.436379336594982e-1 7.529917473718112e-1
      7.624632175766259e-1 7.720538242104290e-1 7.817650658250209e-1 7.915984598216625e-1
      8.015555426881695e-1 8.116378702390005e-1 8.218470178583448e-1 8.321845807462903e-1
      8.426521741680716e-1 8.532514337064542e-1 8.639840155173086e-1 8.748515965883751e-1
      8.858558750013080e-1 8.969985701969993e-1 9.082814232442399e-1 9.197061971117769e-1
      9.312746769437679e-1 9.429886703387243e-1 9.548500076319483e-1 9.668605421815203e-1
      9.790221506579030e-1 9.913367333371605e-1 1.003806214397892e0 1.016432542221885e0
      1.029217689698546e0 1.042163654533184e0 1.055272459559139e0 1.068546153053869e0
      1.081986809058989e0 1.095596527704343e0 1.109377435536160e0 1.123331685849324e0
      1.137461459023838e0 1.151768962865510e0 1.166256432950920e0 1.180926132976747e0
      1.195780355113463e0 1.210821420363500e0 1.226051678923905e0 1.241473510553562e0
      1.257089324945043e0 1.272901562101112e0 1.288912692715998e0 1.305125218561436e0
      1.321541672877570e0 1.338164620768791e0 1.354996659604521e0 1.372040419425077e0
      1.389298563352608e0 1.406773788007212e0 1.424468823928296e0 1.442386436001222e0
      1.460529423889330e0 1.478900622471395e0 1.497502902284564e0 1.516339169972911e0
      1.535412368741580e0 1.554725478816686e0 1.574281517910973e0 1.594083541695331e0
      1.614134644276270e0 1.634437958679357e0 1.654996657338778e0 1.675813952593027e0
      1.696893097186836e0 1.718237384779440e0 1.739850150459193e0 1.761734771264708e0
      1.783894666712514e0 1.806333299331352e0 1.829054175203227e0 1.852060844511215e0
      1.875356902094205e0 1.898945988008593e0 1.922831788097039e0 1.947018034564412e0
      1.971508506560920e0 1.996307030772643e0 2.021417482019447e0 2.046843783860418e0
      2.072589909206957e0 2.098659880943524e0 2.125057772556243e0 2.151787708769393e0
      2.178853866189880e0 2.206260473959876e0 2.234011814417595e0 2.262112223766450e0
      2.290566092752575e0 2.319377867350882e0 2.348552049459778e0 2.378093197604563e0
      2.408005927649743e0 2.438294913520248e0 2.468964887931736e0 2.500020643130116e0
      2.531467031640312e0 2.563308967024511e0 2.595551424649905e0 2.628199442466087e0
      2.661258121792272e0 2.694732628114354e0 2.728628191892054e0 2.762950109376181e0
      2.797703743436157e0 2.832894524398023e0 2.868527950892890e0 2.904609590716149e0
      2.941145081697437e0 2.978140132581542e0 3.015600523920440e0 3.053532108976483e0
      3.091940814637013e0 3.130832642340437e0 3.170213669013950e0 3.210090048023102e0
      3.250468010133231e0 3.291353864483072e0 3.332753999570556e0 3.374674884251007e0
      3.417123068747958e0 3.460105185676586e0 3.503627951080114e0 3.547698165479190e0
      3.592322714934465e0 3.637508572122593e0 3.683262797425676e0 3.729592540034514e0
      3.776505039065654e0 3.824007624692500e0 3.872107719290715e0 3.920812838597927e0
      3.970130592888125e0 4.020068688160762e0 4.070634927344812e0 4.121837211518036e0
      4.173683541141497e0 4.226182017309685e0 4.279340843016320e0 4.333168324436055e0
      4.387672872222391e0 4.442863002821793e0 4.498747339804461e0 4.555334615211754e0
      4.612633670920566e0 4.670653460024943e0 4.729403048234960e0 4.788891615293309e0
      4.849128456409631e0 4.910122983712887e0 4.971884727722080e0 5.034423338835349e0
      5.097748588837924e0 5.161870372428965e0 5.226798708767595e0 5.292543743038485e0
      5.359115748036978e0 5.426525125774308e0 5.494782409102901e0 5.563898263362128e0
      5.633883488044854e0 5.704749018484804e0 5.776505927565291e0 5.849165427449365e0
      5.922738871331686e0 5.997237755212570e0 6.072673719694170e0 6.149058551799423e0
      6.226404186813762e0 6.304722710149997e0 6.384026359236763e0 6.464327525430551e0
      6.545638755951963e0 6.627972755846209e0 6.711342389968261e0 6.795760684993090e0
      6.881240831451019e0 6.967796185788855e0 7.055440272456824e0 7.144186786021758e0
      7.234049593306981e0 7.325042735558934e0 7.417180430641231e0 7.510477075256202e0
      7.604947247194352e0 7.700605707612276e0 7.797467403339003e0 7.895547469211574e0
      7.994861230439838e0 8.095424205001017e0 8.197252106064509e0 8.300360844446999e0
      8.404766531098648e0 8.510485479620428e0 8.617534208813099e0 8.725929445258423e0
      8.835688125932595e0 8.946827400852790e0 9.059364635756847e0 9.173317414816644e0
      9.288703543385783e0 9.405541050781574e0 9.523848193102269e0 9.643643456079575e0
      9.764945557967021e0 9.887773452464852e0 1.001214633168144e1 1.013808362913224e1
      1.026560502277618e1 1.039473043809046e1 1.052548005118395e1 1.065787429194967e1
      1.079193384725712e1 1.092767966418459e1 1.106513295329211e1 1.120431519193578e1
      1.134524812762353e1 1.148795378141331e1 1.163245445135388e1 1.177877271596886e1
      1.192693143778483e1 1.207695376690347e1 1.222886314461894e1 1.238268330708059e1
      1.253843828900171e1 1.269615242741517e1 1.285585036547591e1 1.301755705631169e1
      1.318129776692196e1 1.334709808212585e1 1.351498390855998e1 1.368498147872625e1
      1.385711735509087e1 1.403141843423478e1 1.420791195105616e1 1.438662548302613e1
      1.456758695449762e1 1.475082464106874e1 1.493636717400083e1 1.512424354469211e1
      1.531448310920779e1 1.550711559286681e1 1.570217109488669e1 1.589968009308649e1
      1.609967344864896e1 1.630218241094284e1 1.650723862240546e1 1.671487412348706e1
      1.692512135765717e1 1.713801317647380e1 1.735358284471685e1 1.757186404558549e1
      1.779289088596149e1 1.801669790173837e1 1.824332006321763e1 1.847279278057311e1
      1.870515190938372e1 1.894043375623609e1 1.917867508439752e1 1.941991311956017e1
      1.966418555565791e1 1.991153056075578e1 2.016198678301410e1 2.041559335672717e1
      2.067238990843804e1 2.093241656313046e1 2.119571395049815e1 2.146232321129362e1
      2.173228600375633e1 2.200564451012177e1 2.228244144321279e1 2.256272005311325e1
      2.284652413392622e1 2.313389803061678e1 2.342488664594085e1 2.371953544746169e1
      2.401789047465393e1 2.431999834609761e1 2.462590626676233e1 2.493566203538299e1
      2.524931405192872e1 2.556691132516514e1 2.588850348031241e1 2.621414076679910e1
      2.654387406611363e1 2.687775489975497e1 2.721583543728256e1 2.755816850446828e1
      2.790480759155040e1 2.825580686159142e1 2.861122115894151e1 2.897110601780760e1
      2.933551767093116e1 2.970451305837442e1 3.007814983641730e1 3.045648638656665e1
      3.083958182467805e1 3.122749601019317e1 3.162028955549277e1 3.201802383536734e1
      3.242076099660742e1 3.282856396771372e1 3.324149646873019e1 3.365962302120032e1
      3.408300895824848e1 3.451172043478886e1 3.494582443786174e1 3.538538879710088e1
      3.583048219533175e1 3.628117417930327e1 3.673753517055499e1 3.719963647642015e1
      3.766755030116799e1 3.814134975728567e1 3.862110887690205e1 3.910690262335578e1
      3.959880690290793e1 4.009689857660307e1 4.060125547227865e1 4.111195639672558e1
      4.162908114800252e1 4.215271052790377e1 4.268292635458537e1 4.321981147534903e1
      4.376344977958704e1 4.431392621189060e1 4.487132678532208e1 4.543573859485520e1
      4.600724983098356e1 4.658594979350041e1 4.717192890545244e1 4.776527872726788e1
      4.836609197106370e1 4.897446251513163e1 4.959048541860679e1 5.021425693632133e1
      5.084587453384376e1 5.148543690270887e1 5.213304397583803e1 5.278879694315384e1
      5.345279826739174e1 5.412515170010940e1 5.480596229789867e1 5.549533643880068e1
      5.619338183892729e1 5.690020756929266e1 5.761592407285501e1 5.834064318177424e1
      5.907447813488569e1 5.981754359539358e1 6.056995566878808e1 6.133183192098626e1
      6.210329139670268e1 6.288445463805007e1 6.367544370337395e1 6.447638218632530e1
      6.528739523517136e1 6.610860957235118e1 6.694015351427578e1 6.778215699137768e1
      6.863475156841345e1 6.949807046502018e1 7.037224857653197e1 7.125742249505745e1
      7.215373053082198e1 7.306131273377999e1 7.398031091549694e1 7.491086867130851e1
      7.585313140275748e1 7.680724634031238e1 7.777336256637366e1 7.875163103856692e1
      7.974220461333139e1 8.074523806980361e1 8.176088813400156e1 8.278931350331442e1
      8.383067487129820e1 8.488513495278543e1 8.595285850930933e1 8.703401237484762e1
      8.812876548189172e1 8.923728888784154e1 9.035975580173481e1 9.149634161131058e1