<UPF version="2.0.1">
  <PP_INFO>
Generated using Vanderbilt code, version   7  3  6
Author: kfg        Generation date:   13    5 2013
Automatically converted from original USPP format to UPF.v1.

Futher converted to UPF.v2 format.
Convert Q_IJ to Q_IJL use the same routine as 'upflib/upf_to_internal.f90' of QE.
The conversion is done by using PseudoPotentialIO.jl package.
Converted by: JYU on 2024-04-30

1        The Pseudo was generated with a Scalar-Relativistic Calculation
1.70000000000E+00    Local Potential cutoff radius
nl pn  l   occ               Rcut            Rcut US             E pseu
3S  3  0  2.00      0.00000000000      1.70000000000     -0.56982887100
3P  3  1  1.00      0.00000000000      1.70000000000     -0.19933393100
</PP_INFO>
  <PP_HEADER element="Al" pseudo_type="US" relativistic="scalar" is_ultrasoft="T" is_paw="F" is_coulomb="F" has_so="F" has_wfc="F" has_gipaw="F" core_correction="T" functional="PBE" z_valence="3.0" total_psenergy="-6.4328280759" wfc_cutoff="0.0" rho_cutoff="0.0" l_max="2" mesh_size="893" number_of_wfc="2" number_of_proj="3"/>
  <PP_MESH>
    <PP_R>
0.00000000000000E+00 1.17887612203000E-06 2.37756482565000E-06 3.59639908765000E-06 
4.83571748095000E-06 6.09586426862000E-06 7.37718949954000E-06 8.68004910562000E-06 
1.00048050007000E-05 1.13518251810000E-05 1.27214838275000E-05 1.41141614098000E-05 
1.55302447916000E-05 1.69701273385000E-05 1.84342090273000E-05 1.99228965567000E-05 
2.14366034605000E-05 2.29757502226000E-05 2.45407643938000E-05 2.61320807101000E-05 
2.77501412143000E-05 2.93953953778000E-05 3.10683002264000E-05 3.27693204666000E-05 
3.44989286149000E-05 3.62576051292000E-05 3.80458385420000E-05 3.98641255964000E-05 
4.17129713838000E-05 4.35928894843000E-05 4.55044021095000E-05 4.74480402474000E-05 
4.94243438100000E-05 5.14338617832000E-05 5.34771523794000E-05 5.55547831924000E-05 
5.76673313553000E-05 5.98153837006000E-05 6.19995369233000E-05 6.42203977467000E-05 
6.64785830908000E-05 6.87747202438000E-05 7.11094470365000E-05 7.34834120190000E-05 
7.58972746413000E-05 7.83517054364000E-05 8.08473862063000E-05 8.33850102118000E-05 
8.59652823647000E-05 8.85889194239000E-05 9.12566501943000E-05 9.39692157295000E-05 
9.67273695372000E-05 9.95318777891000E-05 1.02383519533000E-04 1.05283086911000E-04 
1.08231385375000E-04 1.11229233918000E-04 1.14277465294000E-04 1.17376926253000E-04 
1.20528477778000E-04 1.23732995318000E-04 1.26991369039000E-04 1.30304504066000E-04 
1.33673320734000E-04 1.37098754848000E-04 1.40581757940000E-04 1.44123297532000E-04 
1.47724357408000E-04 1.51385937887000E-04 1.55109056097000E-04 1.58894746262000E-04 
1.62744059986000E-04 1.66658066549000E-04 1.70637853199000E-04 1.74684525458000E-04 
1.78799207428000E-04 1.82983042103000E-04 1.87237191686000E-04 1.91562837912000E-04 
1.95961182378000E-04 2.00433446874000E-04 2.04980873724000E-04 2.09604726133000E-04 
2.14306288533000E-04 2.19086866944000E-04 2.23947789335000E-04 2.28890405994000E-04 
2.33916089901000E-04 2.39026237113000E-04 2.44222267147000E-04 2.49505623378000E-04 
2.54877773440000E-04 2.60340209631000E-04 2.65894449329000E-04 2.71542035414000E-04 
2.77284536697000E-04 2.83123548354000E-04 2.89060692369000E-04 2.95097617989000E-04 
3.01236002175000E-04 3.07477550074000E-04 3.13823995489000E-04 3.20277101362000E-04 
3.26838660265000E-04 3.33510494894000E-04 3.40294458581000E-04 3.47192435802000E-04 
3.54206342708000E-04 3.61338127651000E-04 3.68589771727000E-04 3.75963289330000E-04 
3.83460728705000E-04 3.91084172524000E-04 3.98835738459000E-04 4.06717579771000E-04 
4.14731885913000E-04 4.22880883131000E-04 4.31166835089000E-04 4.39592043493000E-04 
4.48158848733000E-04 4.56869630533000E-04 4.65726808609000E-04 4.74732843346000E-04 
4.83890236478000E-04 4.93201531785000E-04 5.02669315798000E-04 5.12296218516000E-04 
5.22084914142000E-04 5.32038121821000E-04 5.42158606396000E-04 5.52449179179000E-04 
5.62912698728000E-04 5.73552071644000E-04 5.84370253375000E-04 5.95370249044000E-04 
6.06555114273000E-04 6.17927956043000E-04 6.29491933549000E-04 6.41250259082000E-04 
6.53206198919000E-04 6.65363074230000E-04 6.77724262004000E-04 6.90293195984000E-04 
7.03073367621000E-04 7.16068327046000E-04 7.29281684051000E-04 7.42717109100000E-04 
7.56378334341000E-04 7.70269154647000E-04 7.84393428668000E-04 7.98755079905000E-04 
8.13358097798000E-04 8.28206538834000E-04 8.43304527676000E-04 8.58656258306000E-04 
8.74265995193000E-04 8.90138074476000E-04 9.06276905167000E-04 9.22686970379000E-04 
9.39372828568000E-04 9.56339114803000E-04 9.73590542050000E-04 9.91131902482000E-04 
1.00896806881000E-03 1.02710399565000E-03 1.04554472086000E-03 1.06429536700000E-03 
1.08336114269000E-03 1.10274734410000E-03 1.12245935642000E-03 1.14250265533000E-03 
1.16288280855000E-03 1.18360547735000E-03 1.20467641817000E-03 1.22610148418000E-03 
1.24788662694000E-03 1.27003789800000E-03 1.29256145063000E-03 1.31546354154000E-03 
1.33875053255000E-03 1.36242889243000E-03 1.38650519865000E-03 1.41098613922000E-03 
1.43587851457000E-03 1.46118923940000E-03 1.48692534463000E-03 1.51309397936000E-03 
1.53970241280000E-03 1.56675803637000E-03 1.59426836569000E-03 1.62224104269000E-03 
1.65068383774000E-03 1.67960465180000E-03 1.70901151862000E-03 1.73891260696000E-03 
1.76931622287000E-03 1.80023081199000E-03 1.83166496191000E-03 1.86362740454000E-03 
1.89612701853000E-03 1.92917283178000E-03 1.96277402389000E-03 1.99693992873000E-03 
2.03168003706000E-03 2.06700399912000E-03 2.10292162736000E-03 2.13944289913000E-03 
2.17657795946000E-03 2.21433712388000E-03 2.25273088129000E-03 2.29176989687000E-03 
2.33146501505000E-03 2.37182726250000E-03 2.41286785122000E-03 2.45459818162000E-03 
2.49702984575000E-03 2.54017463045000E-03 2.58404452065000E-03 2.62865170271000E-03 
2.67400856782000E-03 2.72012771539000E-03 2.76702195659000E-03 2.81470431790000E-03 
2.86318804473000E-03 2.91248660509000E-03 2.96261369334000E-03 3.01358323400000E-03 
3.06540938560000E-03 3.11810654463000E-03 3.17168934952000E-03 3.22617268473000E-03 
3.28157168487000E-03 3.33790173892000E-03 3.39517849446000E-03 3.45341786208000E-03 
3.51263601976000E-03 3.57284941735000E-03 3.63407478120000E-03 3.69632911875000E-03 
3.75962972325000E-03 3.82399417864000E-03 3.88944036432000E-03 3.95598646022000E-03 
4.02365095180000E-03 4.09245263517000E-03 4.16241062237000E-03 4.23354434662000E-03 
4.30587356773000E-03 4.37941837764000E-03 4.45419920591000E-03 4.53023682550000E-03 
4.60755235844000E-03 4.68616728177000E-03 4.76610343347000E-03 4.84738301855000E-03 
4.93002861519000E-03 5.01406318103000E-03 5.09951005955000E-03 5.18639298654000E-03 
5.27473609671000E-03 5.36456393038000E-03 5.45590144029000E-03 5.54877399857000E-03 
5.64320740375000E-03 5.73922788794000E-03 5.83686212411000E-03 5.93613723351000E-03 
6.03708079319000E-03 6.13972084370000E-03 6.24408589680000E-03 6.35020494346000E-03 
6.45810746188000E-03 6.56782342568000E-03 6.67938331221000E-03 6.79281811105000E-03 
6.90815933260000E-03 7.02543901683000E-03 7.14468974218000E-03 7.26594463462000E-03 
7.38923737683000E-03 7.51460221761000E-03 7.64207398133000E-03 7.77168807762000E-03 
7.90348051123000E-03 8.03748789202000E-03 8.17374744513000E-03 8.31229702131000E-03 
8.45317510744000E-03 8.59642083724000E-03 8.74207400209000E-03 8.89017506215000E-03 
9.04076515756000E-03 9.19388611986000E-03 9.34958048365000E-03 9.50789149835000E-03 
9.66886314027000E-03 9.83254012479000E-03 9.99896791878000E-03 1.01681927533000E-02 
1.03402616362000E-02 1.05152223657000E-02 1.06931235430000E-02 1.08740145862000E-02 
1.10579457441000E-02 1.12449681098000E-02 1.14351336352000E-02 1.16284951452000E-02 
1.18251063526000E-02 1.20250218729000E-02 1.22282972395000E-02 1.24349889191000E-02 
1.26451543274000E-02 1.28588518449000E-02 1.30761408335000E-02 1.32970816527000E-02 
1.35217356762000E-02 1.37501653095000E-02 1.39824340067000E-02 1.42186062883000E-02 
1.44587477594000E-02 1.47029251273000E-02 1.49512062208000E-02 1.52036600083000E-02 
1.54603566176000E-02 1.57213673550000E-02 1.59867647250000E-02 1.62566224509000E-02 
1.65310154949000E-02 1.68100200790000E-02 1.70937137064000E-02 1.73821751826000E-02 
1.76754846376000E-02 1.79737235483000E-02 1.82769747607000E-02 1.85853225131000E-02 
1.88988524597000E-02 1.92176516942000E-02 1.95418087739000E-02 1.98714137446000E-02 
2.02065581654000E-02 2.05473351340000E-02 2.08938393130000E-02 2.12461669556000E-02 
2.16044159330000E-02 2.19686857611000E-02 2.23390776283000E-02 2.27156944236000E-02 
2.30986407651000E-02 2.34880230294000E-02 2.38839493807000E-02 2.42865298010000E-02 
2.46958761209000E-02 2.51121020503000E-02 2.55353232102000E-02 2.59656571647000E-02 
2.64032234538000E-02 2.68481436266000E-02 2.73005412748000E-02 2.77605420673000E-02 
2.82282737851000E-02 2.87038663567000E-02 2.91874518941000E-02 2.96791647299000E-02 
3.01791414541000E-02 3.06875209523000E-02 3.12044444442000E-02 3.17300555232000E-02 
3.22645001956000E-02 3.28079269218000E-02 3.33604866570000E-02 3.39223328938000E-02 
3.44936217040000E-02 3.50745117827000E-02 3.56651644920000E-02 3.62657439058000E-02 
3.68764168557000E-02 3.74973529770000E-02 3.81287247558000E-02 3.87707075774000E-02 
3.94234797744000E-02 4.00872226766000E-02 4.07621206613000E-02 4.14483612045000E-02 
4.21461349330000E-02 4.28556356773000E-02 4.35770605255000E-02 4.43106098781000E-02 
4.50564875034000E-02 4.58149005946000E-02 4.65860598267000E-02 4.73701794157000E-02 
4.81674771775000E-02 4.89781745889000E-02 4.98024968489000E-02 5.06406729411000E-02 
5.14929356977000E-02 5.23595218637000E-02 5.32406721631000E-02 5.41366313656000E-02 
5.50476483545000E-02 5.59739761958000E-02 5.69158722089000E-02 5.78735980376000E-02 
5.88474197230000E-02 5.98376077774000E-02 6.08444372593000E-02 6.18681878502000E-02 
6.29091439317000E-02 6.39675946651000E-02 6.50438340712000E-02 6.61381611123000E-02 
6.72508797752000E-02 6.83822991556000E-02 6.95327335439000E-02 7.07025025126000E-02 
7.18919310051000E-02 7.31013494258000E-02 7.43310937320000E-02 7.55815055274000E-02 
7.68529321565000E-02 7.81457268016000E-02 7.94602485806000E-02 8.07968626470000E-02 
8.21559402909000E-02 8.35378590427000E-02 8.49430027777000E-02 8.63717618225000E-02 
8.78245330639000E-02 8.93017200587000E-02 9.08037331462000E-02 9.23309895618000E-02 
9.38839135534000E-02 9.54629364987000E-02 9.70684970252000E-02 9.87010411325000E-02 
1.00361022315000E-01 1.02048901690000E-01 1.03765148124000E-01 1.05510238362000E-01 
1.07284657163000E-01 1.09088897433000E-01 1.10923460361000E-01 1.12788855559000E-01 
1.14685601206000E-01 1.16614224186000E-01 1.18575260242000E-01 1.20569254117000E-01 
1.22596759713000E-01 1.24658340237000E-01 1.26754568364000E-01 1.28886026394000E-01 
1.31053306412000E-01 1.33257010454000E-01 1.35497750674000E-01 1.37776149515000E-01 
1.40092839879000E-01 1.42448465307000E-01 1.44843680154000E-01 1.47279149773000E-01 
1.49755550699000E-01 1.52273570838000E-01 1.54833909654000E-01 1.57437278371000E-01 
1.60084400163000E-01 1.62776010357000E-01 1.65512856643000E-01 1.68295699271000E-01 
1.71125311271000E-01 1.74002478666000E-01 1.76928000687000E-01 1.79902689997000E-01 
1.82927372919000E-01 1.86002889661000E-01 1.89130094553000E-01 1.92309856284000E-01 
1.95543058142000E-01 1.98830598258000E-01 2.02173389859000E-01 2.05572361520000E-01 
2.09028457423000E-01 2.12542637614000E-01 2.16115878279000E-01 2.19749172008000E-01 
2.23443528070000E-01 2.27199972702000E-01 2.31019549383000E-01 2.34903319132000E-01 
2.38852360798000E-01 2.42867771363000E-01 2.46950666245000E-01 2.51102179607000E-01 
2.55323464675000E-01 2.59615694054000E-01 2.63980060057000E-01 2.68417775038000E-01 
2.72930071723000E-01 2.77518203557000E-01 2.82183445050000E-01 2.86927092133000E-01 
2.91750462517000E-01 2.96654896056000E-01 3.01641755126000E-01 3.06712424997000E-01 
3.11868314221000E-01 3.17110855023000E-01 3.22441503698000E-01 3.27861741016000E-01 
3.33373072632000E-01 3.38977029509000E-01 3.44675168336000E-01 3.50469071967000E-01 
3.56360349857000E-01 3.62350638510000E-01 3.68441601932000E-01 3.74634932098000E-01 
3.80932349418000E-01 3.87335603213000E-01 3.93846472207000E-01 4.00466765016000E-01 
4.07198320654000E-01 4.14043009040000E-01 4.21002731520000E-01 4.28079421396000E-01 
4.35275044459000E-01 4.42591599542000E-01 4.50031119066000E-01 4.57595669613000E-01 
4.65287352496000E-01 4.73108304343000E-01 4.81060697690000E-01 4.89146741587000E-01 
4.97368682210000E-01 5.05728803483000E-01 5.14229427716000E-01 5.22872916249000E-01 
5.31661670106000E-01 5.40598130663000E-01 5.49684780330000E-01 5.58924143232000E-01 
5.68318785920000E-01 5.77871318077000E-01 5.87584393246000E-01 5.97460709565000E-01 
6.07503010519000E-01 6.17714085700000E-01 6.28096771585000E-01 6.38653952319000E-01 
6.49388560520000E-01 6.60303578093000E-01 6.71402037058000E-01 6.82687020391000E-01 
6.94161662882000E-01 7.05829152006000E-01 7.17692728807000E-01 7.29755688799000E-01 
7.42021382883000E-01 7.54493218273000E-01 7.67174659450000E-01 7.80069229117000E-01 
7.93180509182000E-01 8.06512141751000E-01 8.20067830142000E-01 8.33851339910000E-01 
8.47866499898000E-01 8.62117203295000E-01 8.76607408721000E-01 8.91341141328000E-01 
9.06322493912000E-01 9.21555628057000E-01 9.37044775288000E-01 9.52794238244000E-01 
9.68808391878000E-01 9.85091684669000E-01 1.00164863986000E+00 1.01848385671000E+00 
1.03560201177000E+00 1.05300786021000E+00 1.07070623708000E+00 1.08870205872000E+00 
1.10700032409000E+00 1.12560611615000E+00 1.14452460330000E+00 1.16376104079000E+00 
1.18332077221000E+00 1.20320923094000E+00 1.22343194168000E+00 1.24399452197000E+00 
1.26490268378000E+00 1.28616223507000E+00 1.30777908139000E+00 1.32975922758000E+00 
1.35210877937000E+00 1.37483394511000E+00 1.39794103750000E+00 1.42143647531000E+00 
1.44532678521000E+00 1.46961860356000E+00 1.49431867823000E+00 1.51943387051000E+00 
1.54497115702000E+00 1.57093763160000E+00 1.59734050732000E+00 1.62418711851000E+00 
1.65148492270000E+00 1.67924150282000E+00 1.70746456919000E+00 1.73616196174000E+00 
1.76534165215000E+00 1.79501174608000E+00 1.82518048540000E+00 1.85585625053000E+00 
1.88704756270000E+00 1.91876308637000E+00 1.95101163161000E+00 1.98380215656000E+00 
2.01714376990000E+00 2.05104573341000E+00 2.08551746451000E+00 2.12056853893000E+00 
2.15620869327000E+00 2.19244782783000E+00 2.22929600926000E+00 2.26676347339000E+00 
2.30486062811000E+00 2.34359805620000E+00 2.38298651830000E+00 2.42303695591000E+00 
2.46376049440000E+00 2.50516844614000E+00 2.54727231359000E+00 2.59008379256000E+00 
2.63361477538000E+00 2.67787735428000E+00 2.72288382471000E+00 2.76864668874000E+00 
2.81517865859000E+00 2.86249266010000E+00 2.91060183635000E+00 2.95951955131000E+00 
3.00925939355000E+00 3.05983518002000E+00 3.11126095985000E+00 3.16355101834000E+00 
3.21671988082000E+00 3.27078231678000E+00 3.32575334389000E+00 3.38164823225000E+00 
3.43848250856000E+00 3.49627196051000E+00 3.55503264107000E+00 3.61478087305000E+00 
3.67553325355000E+00 3.73730665863000E+00 3.80011824797000E+00 3.86398546962000E+00 
3.92892606491000E+00 3.99495807330000E+00 4.06209983743000E+00 4.13037000824000E+00 
4.19978755009000E+00 4.27037174609000E+00 4.34214220340000E+00 4.41511885873000E+00 
4.48932198384000E+00 4.56477219119000E+00 4.64149043965000E+00 4.71949804034000E+00 
4.79881666253000E+00 4.87946833970000E+00 4.96147547561000E+00 5.04486085053000E+00 
5.12964762761000E+00 5.21585935928000E+00 5.30351999380000E+00 5.39265388190000E+00 
5.48328578358000E+00 5.57544087493000E+00 5.66914475520000E+00 5.76442345384000E+00 
5.86130343777000E+00 5.95981161872000E+00 6.05997536070000E+00 6.16182248762000E+00 
6.26538129100000E+00 6.37068053785000E+00 6.47774947863000E+00 6.58661785540000E+00 
6.69731591008000E+00 6.80987439285000E+00 6.92432457066000E+00 7.04069823597000E+00 
7.15902771555000E+00 7.27934587946000E+00 7.40168615018000E+00 7.52608251191000E+00 
7.65256952000000E+00 7.78118231053000E+00 7.91195661011000E+00 8.04492874578000E+00 
8.18013565509000E+00 8.31761489639000E+00 8.45740465924000E+00 8.59954377503000E+00 
8.74407172776000E+00 8.89102866502000E+00 9.04045540911000E+00 9.19239346844000E+00 
9.34688504898000E+00 9.50397306607000E+00 9.66370115628000E+00 9.82611368954000E+00 
9.99125578150000E+00 1.01591733060000E+01 1.03299129079000E+01 1.05035220160000E+01 
1.06800488561000E+01 1.08595424646000E+01 1.10420527020000E+01 1.12276302667000E+01 
1.14163267093000E+01 1.16081944466000E+01 1.18032867766000E+01 1.20016578926000E+01 
1.22033628993000E+01 1.24084578268000E+01 1.26169996475000E+01 1.28290462910000E+01 
1.30446566604000E+01 1.32638906488000E+01 1.34868091562000E+01 1.37134741056000E+01 
1.39439484610000E+01 1.41782962446000E+01 1.44165825545000E+01 1.46588735828000E+01 
1.49052366342000E+01 1.51557401445000E+01 1.54104536994000E+01 1.56694480546000E+01 
1.59327951545000E+01 1.62005681527000E+01 1.64728414324000E+01 1.67496906268000E+01 
1.70311926402000E+01 1.73174256694000E+01 1.76084692255000E+01 1.79044041558000E+01 
1.82053126663000E+01 1.85112783446000E+01 1.88223861833000E+01 1.91387226030000E+01 
1.94603754771000E+01 1.97874341557000E+01 2.01199894905000E+01 2.04581338601000E+01 
2.08019611957000E+01 2.11515670071000E+01 2.15070484093000E+01 2.18685041494000E+01 
2.22360346340000E+01 2.26097419575000E+01 2.29897299296000E+01 2.33761041052000E+01 
2.37689718128000E+01 2.41684421849000E+01 2.45746261881000E+01 2.49876366538000E+01 
2.54075883098000E+01 2.58345978122000E+01 2.62687837773000E+01 2.67102668151000E+01 
2.71591695628000E+01 2.76156167184000E+01 2.80797350756000E+01 2.85516535594000E+01 
2.90315032610000E+01 2.95194174753000E+01 3.00155317371000E+01 3.05199838591000E+01 
3.10329139701000E+01 3.15544645540000E+01 3.20847804893000E+01 3.26240090894000E+01 
3.31723001436000E+01 3.37298059584000E+01 3.42966814000000E+01 3.48730839377000E+01 
3.54591736868000E+01 3.60551134539000E+01 3.66610687816000E+01 3.72772079947000E+01 
3.79037022470000E+01 3.85407255687000E+01 3.91884549148000E+01 3.98470702143000E+01 
4.05167544202000E+01 4.11976935600000E+01 4.18900767880000E+01 4.25940964373000E+01 
4.33099480734000E+01 4.40378305486000E+01 4.47779460572000E+01 4.55305001915000E+01 
4.62957019992000E+01 4.70737640414000E+01 4.78649024513000E+01 4.86693369946000E+01 
4.94872911307000E+01 5.03189920743000E+01 5.11646708586000E+01 5.20245624001000E+01 
5.28989055628000E+01 5.37879432257000E+01 5.46919223492000E+01 5.56110940445000E+01 
5.65457136431000E+01 5.74960407674000E+01 5.84623394033000E+01 5.94448779733000E+01 
6.04439294112000E+01 6.14597712376000E+01 6.24926856374000E+01 6.35429595378000E+01 
6.46108846884000E+01 6.56967577419000E+01 6.68008803367000E+01 6.79235591806000E+01 
6.90651061360000E+01 7.02258383068000E+01 7.14060781259000E+01 7.26061534454000E+01 
7.38263976271000E+01 7.50671496357000E+01 7.63287541325000E+01 7.76115615713000E+01 
7.89159282958000E+01 8.02422166383000E+01 8.15907950210000E+01 8.29620380574000E+01 
8.43563266574000E+01 8.57740481323000E+01 8.72155963026000E+01 8.86813716078000E+01 
9.01717812170000E+01 9.16872391426000E+01 9.32281663547000E+01 9.47949908986000E+01 
9.63881480135000E+01 9.80080802532000E+01 9.96552376093000E+01 1.01330077636000E+02 
1.03033065578000E+02 1.04764674498000E+02 1.06525385409000E+02 1.08315687409000E+02 
1.10136077817000E+02 1.11987062307000E+02 1.13869155054000E+02 1.15782878874000E+02 
1.17728765368000E+02 1.19707355073000E+02 1.21719197611000E+02 1.23764851840000E+02 
1.25844886009000E+02 1.27959877919000E+02 1.30110415083000E+02 1.32297094884000E+02 
1.34520524749000E+02 1.36781322310000E+02 1.39080115583000E+02 1.41417543134000E+02 
1.43794254265000E+02 1.46210909189000E+02 1.48668179214000E+02 1.51166746930000E+02 
1.53707306402000E+02 1.56290563355000E+02 1.58917235378000E+02 1.61588052118000E+02 
1.64303755488000E+02 1.67065099865000E+02 1.69872852308000E+02 1.72727792767000E+02 
1.75630714298000E+02 1.78582423287000E+02 1.81583739673000E+02 1.84635497173000E+02 
1.87738543519000E+02 1.90893740686000E+02 1.94101965140000E+02 1.97364108073000E+02 
2.00681075659000E+02 
</PP_R>
    <PP_RAB>
1.16907944302000E-06 1.18872737839000E-06 1.20870552345000E-06 1.22901942781000E-06 
1.24967473437000E-06 1.27067718083000E-06 1.29203260134000E-06 1.31374692811000E-06 
1.33582619303000E-06 1.35827652937000E-06 1.38110417348000E-06 1.40431546651000E-06 
1.42791685621000E-06 1.45191489866000E-06 1.47631626014000E-06 1.50112771896000E-06 
1.52635616736000E-06 1.55200861340000E-06 1.57809218291000E-06 1.60461412152000E-06 
1.63158179659000E-06 1.65900269932000E-06 1.68688444679000E-06 1.71523478413000E-06 
1.74406158660000E-06 1.77337286184000E-06 1.80317675205000E-06 1.83348153629000E-06 
1.86429563275000E-06 1.89562760109000E-06 1.92748614484000E-06 1.95988011381000E-06 
1.99281850652000E-06 2.02631047274000E-06 2.06036531601000E-06 2.09499249623000E-06 
2.13020163227000E-06 2.16600250470000E-06 2.20240505841000E-06 2.23941940546000E-06 
2.27705582786000E-06 2.31532478042000E-06 2.35423689363000E-06 2.39380297667000E-06 
2.43403402037000E-06 2.47494120029000E-06 2.51653587979000E-06 2.55882961322000E-06 
2.60183414910000E-06 2.64556143342000E-06 2.69002361292000E-06 2.73523303851000E-06 
2.78120226864000E-06 2.82794407284000E-06 2.87547143524000E-06 2.92379755820000E-06 
2.97293586594000E-06 3.02290000832000E-06 3.07370386459000E-06 3.12536154724000E-06 
3.17788740598000E-06 3.23129603166000E-06 3.28560226034000E-06 3.34082117745000E-06 
3.39696812192000E-06 3.45405869048000E-06 3.51210874201000E-06 3.57113440188000E-06 
3.63115206649000E-06 3.69217840781000E-06 3.75423037797000E-06 3.81732521405000E-06 
3.88148044279000E-06 3.94671388550000E-06 4.01304366300000E-06 4.08048820065000E-06 
4.14906623349000E-06 4.21879681141000E-06 4.28969930445000E-06 4.36179340822000E-06 
4.43509914931000E-06 4.50963689091000E-06 4.58542733842000E-06 4.66249154524000E-06 
4.74085091857000E-06 4.82052722542000E-06 4.90154259860000E-06 4.98391954292000E-06 
5.06768094137000E-06 5.15285006157000E-06 5.23945056213000E-06 5.32750649932000E-06 
5.41704233369000E-06 5.50808293686000E-06 5.60065359849000E-06 5.69478003325000E-06 
5.79048838796000E-06 5.88780524891000E-06 5.98675764917000E-06 6.08737307617000E-06 
6.18967947927000E-06 6.29370527758000E-06 6.39947936783000E-06 6.50703113239000E-06 
6.61639044743000E-06 6.72758769126000E-06 6.84065375270000E-06 6.95562003973000E-06 
7.07251848815000E-06 7.19138157053000E-06 7.31224230514000E-06 7.43513426518000E-06 
7.56009158811000E-06 7.68714898509000E-06 7.81634175066000E-06 7.94770577253000E-06 
8.08127754156000E-06 8.21709416187000E-06 8.35519336117000E-06 8.49561350124000E-06 
8.63839358857000E-06 8.78357328523000E-06 8.93119291983000E-06 9.08129349878000E-06 
9.23391671766000E-06 9.38910497278000E-06 9.54690137298000E-06 9.70734975162000E-06 
9.87049467872000E-06 1.00363814734000E-05 1.02050562163000E-05 1.03765657627000E-05 
1.05509577552000E-05 1.07282806371000E-05 1.09085836659000E-05 1.10919169271000E-05 
1.12783313476000E-05 1.14678787104000E-05 1.16606116688000E-05 1.18565837611000E-05 
1.20558494250000E-05 1.22584640135000E-05 1.24644838098000E-05 1.26739660428000E-05 
1.28869689034000E-05 1.31035515604000E-05 1.33237741772000E-05 1.35476979280000E-05 
1.37753850154000E-05 1.40068986871000E-05 1.42423032542000E-05 1.44816641081000E-05 
1.47250477397000E-05 1.49725217569000E-05 1.52241549043000E-05 1.54800170815000E-05 
1.57401793629000E-05 1.60047140176000E-05 1.62736945291000E-05 1.65471956160000E-05 
1.68252932525000E-05 1.71080646897000E-05 1.73955884772000E-05 1.76879444844000E-05 
1.79852139233000E-05 1.82874793705000E-05 1.85948247907000E-05 1.89073355597000E-05 
1.92250984878000E-05 1.95482018447000E-05 1.98767353833000E-05 2.02107903652000E-05 
2.05504595854000E-05 2.08958373988000E-05 2.12470197458000E-05 2.16041041794000E-05 
2.19671898920000E-05 2.23363777429000E-05 2.27117702869000E-05 2.30934718020000E-05 
2.34815883189000E-05 2.38762276502000E-05 2.42774994204000E-05 2.46855150966000E-05 
2.51003880191000E-05 2.55222334330000E-05 2.59511685203000E-05 2.63873124323000E-05 
2.68307863231000E-05 2.72817133825000E-05 2.77402188711000E-05 2.82064301545000E-05 
2.86804767387000E-05 2.91624903064000E-05 2.96526047534000E-05 3.01509562257000E-05 
3.06576831574000E-05 3.11729263095000E-05 3.16968288081000E-05 3.22295361853000E-05 
3.27711964186000E-05 3.33219599728000E-05 3.38819798412000E-05 3.44514115885000E-05 
3.50304133940000E-05 3.56191460950000E-05 3.62177732324000E-05 3.68264610952000E-05 
3.74453787673000E-05 3.80746981743000E-05 3.87145941312000E-05 3.93652443909000E-05 
4.00268296939000E-05 4.06995338180000E-05 4.13835436299000E-05 4.20790491367000E-05 
4.27862435389000E-05 4.35053232838000E-05 4.42364881204000E-05 4.49799411549000E-05 
4.57358889067000E-05 4.65045413662000E-05 4.72861120529000E-05 4.80808180747000E-05 
4.88888801885000E-05 4.97105228612000E-05 5.05459743321000E-05 5.13954666764000E-05 
5.22592358697000E-05 5.31375218535000E-05 5.40305686016000E-05 5.49386241885000E-05 
5.58619408576000E-05 5.68007750917000E-05 5.77553876840000E-05 5.87260438111000E-05 
5.97130131056000E-05 6.07165697322000E-05 6.17369924631000E-05 6.27745647555000E-05 
6.38295748306000E-05 6.49023157536000E-05 6.59930855150000E-05 6.71021871134000E-05 
6.82299286396000E-05 6.93766233626000E-05 7.05425898159000E-05 7.17281518867000E-05 
7.29336389053000E-05 7.41593857370000E-05 7.54057328749000E-05 7.66730265346000E-05 
7.79616187503000E-05 7.92718674724000E-05 8.06041366675000E-05 8.19587964189000E-05 
8.33362230295000E-05 8.47367991269000E-05 8.61609137689000E-05 8.76089625521000E-05 
8.90813477215000E-05 9.05784782826000E-05 9.21007701145000E-05 9.36486460859000E-05 
9.52225361722000E-05 9.68228775754000E-05 9.84501148448000E-05 1.00104700001000E-04 
1.01787092663000E-04 1.03497760171000E-04 1.05237177723000E-04 1.07005828501000E-04 
1.08804203808000E-04 1.10632803204000E-04 1.12492134647000E-04 1.14382714627000E-04 
1.16305068320000E-04 1.18259729724000E-04 1.20247241813000E-04 1.22268156687000E-04 
1.24323035724000E-04 1.26412449737000E-04 1.28536979132000E-04 1.30697214070000E-04 
1.32893754630000E-04 1.35127210977000E-04 1.37398203529000E-04 1.39707363132000E-04 
1.42055331234000E-04 1.44442760064000E-04 1.46870312811000E-04 1.49338663812000E-04 
1.51848498736000E-04 1.54400514774000E-04 1.56995420837000E-04 1.59633937749000E-04 
1.62316798448000E-04 1.65044748189000E-04 1.67818544756000E-04 1.70638958664000E-04 
1.73506773380000E-04 1.76422785538000E-04 1.79387805159000E-04 1.82402655880000E-04 
1.85468175178000E-04 1.88585214606000E-04 1.91754640029000E-04 1.94977331862000E-04 
1.98254185320000E-04 2.01586110658000E-04 2.04974033436000E-04 2.08418894762000E-04 
2.11921651566000E-04 2.15483276858000E-04 2.19104760002000E-04 2.22787106988000E-04 
2.26531340714000E-04 2.30338501268000E-04 2.34209646221000E-04 2.38145850916000E-04 
2.42148208766000E-04 2.46217831565000E-04 2.50355849789000E-04 2.54563412915000E-04 
2.58841689737000E-04 2.63191868692000E-04 2.67615158192000E-04 2.72112786957000E-04 
2.76686004357000E-04 2.81336080760000E-04 2.86064307883000E-04 2.90871999153000E-04 
2.95760490070000E-04 3.00731138582000E-04 3.05785325454000E-04 3.10924454661000E-04 
3.16149953771000E-04 3.21463274346000E-04 3.26865892342000E-04 3.32359308520000E-04 
3.37945048866000E-04 3.43624665010000E-04 3.49399734659000E-04 3.55271862037000E-04 
3.61242678327000E-04 3.67313842128000E-04 3.73487039915000E-04 3.79763986502000E-04 
3.86146425528000E-04 3.92636129933000E-04 3.99234902455000E-04 4.05944576127000E-04 
4.12767014792000E-04 4.19704113615000E-04 4.26757799613000E-04 4.33930032188000E-04 
4.41222803674000E-04 4.48638139886000E-04 4.56178100689000E-04 4.63844780564000E-04 
4.71640309194000E-04 4.79566852054000E-04 4.87626611012000E-04 4.95821824942000E-04 
5.04154770344000E-04 5.12627761981000E-04 5.21243153514000E-04 5.30003338163000E-04 
5.38910749370000E-04 5.47967861473000E-04 5.57177190394000E-04 5.66541294339000E-04 
5.76062774509000E-04 5.85744275821000E-04 5.95588487642000E-04 6.05598144540000E-04 
6.15776027038000E-04 6.26124962393000E-04 6.36647825374000E-04 6.47347539067000E-04 
6.58227075683000E-04 6.69289457386000E-04 6.80537757131000E-04 6.91975099517000E-04 
7.03604661659000E-04 7.15429674064000E-04 7.27453421535000E-04 7.39679244078000E-04 
7.52110537833000E-04 7.64750756019000E-04 7.77603409888000E-04 7.90672069704000E-04 
8.03960365735000E-04 8.17471989259000E-04 8.31210693592000E-04 8.45180295129000E-04 
8.59384674405000E-04 8.73827777172000E-04 8.88513615495000E-04 9.03446268870000E-04 
9.18629885351000E-04 9.34068682707000E-04 9.49766949592000E-04 9.65729046737000E-04 
9.81959408160000E-04 9.98462542399000E-04 1.01524303377000E-03 1.03230554361000E-03 
1.04965481164000E-03 1.06729565719000E-03 1.08523298063000E-03 1.10347176465000E-03 
1.12201707570000E-03 1.14087406537000E-03 1.16004797184000E-03 1.17954412132000E-03 
1.19936792953000E-03 1.21952490321000E-03 1.24002064164000E-03 1.26086083823000E-03 
1.28205128205000E-03 1.30359785947000E-03 1.32550655579000E-03 1.34778345689000E-03 
1.37043475096000E-03 1.39346673016000E-03 1.41688579240000E-03 1.44069844315000E-03 
1.46491129717000E-03 1.48953108042000E-03 1.51456463188000E-03 1.54001890547000E-03 
1.56590097200000E-03 1.59221802109000E-03 1.61897736320000E-03 1.64618643165000E-03 
1.67385278470000E-03 1.70198410762000E-03 1.73058821484000E-03 1.75967305214000E-03 
1.78924669883000E-03 1.81931736999000E-03 1.84989341879000E-03 1.88098333876000E-03 
1.91259576621000E-03 1.94473948255000E-03 1.97742341681000E-03 2.01065664806000E-03 
2.04444840799000E-03 2.07880808339000E-03 2.11374521885000E-03 2.14926951935000E-03 
2.18539085298000E-03 2.22211925368000E-03 2.25946492401000E-03 2.29743823802000E-03 
2.33604974409000E-03 2.37531016789000E-03 2.41523041534000E-03 2.45582157566000E-03 
2.49709492443000E-03 2.53906192673000E-03 2.58173424035000E-03 2.62512371896000E-03 