<UPF version="2.0.1">
  <PP_INFO>
Generated using Vanderbilt code, version   7  3  6
Author: kfg        Generation date:   13    5 2013
Automatically converted from original USPP format to UPF.v1.

Futher converted to UPF.v2 format.
Convert Q_IJ to Q_IJL use the same routine as 'upflib/upf_to_internal.f90' of QE.
The conversion is done by using PseudoPotentialIO.jl package.
Converted by: JYU on 2024-04-30

1        The Pseudo was generated with a Scalar-Relativistic Calculation
1.50000000000E+00    Local Potential cutoff radius
nl pn  l   occ               Rcut            Rcut US             E pseu
4S  4  0  2.00      0.00000000000      1.50000000000     -1.06527890600
4P  4  1  3.00      0.00000000000      1.50000000000     -0.38182955700
</PP_INFO>
  <PP_HEADER element="As" pseudo_type="US" relativistic="scalar" is_ultrasoft="T" is_paw="F" is_coulomb="F" has_so="F" has_wfc="F" has_gipaw="F" core_correction="T" functional="PBE" z_valence="5.0" total_psenergy="-39.9304617316" wfc_cutoff="0.0" rho_cutoff="0.0" l_max="2" mesh_size="875" number_of_wfc="2" number_of_proj="6"/>
  <PP_MESH>
    <PP_R>
0.00000000000000E+00 1.28396391151000E-06 2.58987539418000E-06 3.91810961109000E-06 
5.26904813824000E-06 6.64307907412000E-06 8.04059715123000E-06 9.46200384948000E-06 
1.09077075115000E-05 1.23781234600000E-05 1.38736741170000E-05 1.53947891252000E-05 
1.69419054717000E-05 1.85154676129000E-05 2.01159276028000E-05 2.17437452226000E-05 
2.33993881128000E-05 2.50833319076000E-05 2.67960603715000E-05 2.85380655381000E-05 
3.03098478519000E-05 3.21119163116000E-05 3.39447886166000E-05 3.58089913157000E-05 
3.77050599582000E-05 3.96335392480000E-05 4.15949831999000E-05 4.35899552987000E-05 
4.56190286613000E-05 4.76827862012000E-05 4.97818207961000E-05 5.19167354580000E-05 
5.40881435064000E-05 5.62966687450000E-05 5.85429456404000E-05 6.08276195043000E-05 
6.31513466794000E-05 6.55147947275000E-05 6.79186426215000E-05 7.03635809405000E-05 
7.28503120678000E-05 7.53795503932000E-05 7.79520225180000E-05 8.05684674635000E-05 
8.32296368839000E-05 8.59362952815000E-05 8.86892202270000E-05 9.14892025824000E-05 
9.43370467285000E-05 9.72335707958000E-05 1.00179606900000E-04 1.03176001379000E-04 
1.06223615040000E-04 1.09323323404000E-04 1.12476016956000E-04 1.15682601404000E-04 
1.18943997938000E-04 1.22261143495000E-04 1.25634991025000E-04 1.29066509770000E-04 
1.32556685539000E-04 1.36106520992000E-04 1.39717035928000E-04 1.43389267578000E-04 
1.47124270902000E-04 1.50923118896000E-04 1.54786902895000E-04 1.58716732889000E-04 
1.62713737842000E-04 1.66779066016000E-04 1.70913885302000E-04 1.75119383553000E-04 
1.79396768928000E-04 1.83747270235000E-04 1.88172137291000E-04 1.92672641274000E-04 
1.97250075092000E-04 2.01905753752000E-04 2.06641014742000E-04 2.11457218409000E-04 
2.16355748357000E-04 2.21338011838000E-04 2.26405440159000E-04 2.31559489096000E-04 
2.36801639306000E-04 2.42133396758000E-04 2.47556293162000E-04 2.53071886412000E-04 
2.58681761031000E-04 2.64387528628000E-04 2.70190828359000E-04 2.76093327399000E-04 
2.82096721423000E-04 2.88202735089000E-04 2.94413122537000E-04 3.00729667891000E-04 
3.07154185773000E-04 3.13688521822000E-04 3.20334553226000E-04 3.27094189262000E-04 
3.33969371842000E-04 3.40962076073000E-04 3.48074310823000E-04 3.55308119301000E-04 
3.62665579639000E-04 3.70148805494000E-04 3.77759946650000E-04 3.85501189643000E-04 
3.93374758381000E-04 4.01382914788000E-04 4.09527959452000E-04 4.17812232288000E-04 
4.26238113206000E-04 4.34808022799000E-04 4.43524423036000E-04 4.52389817971000E-04 
4.61406754459000E-04 4.70577822892000E-04 4.79905657941000E-04 4.89392939313000E-04 
4.99042392518000E-04 5.08856789660000E-04 5.18838950223000E-04 5.28991741890000E-04 
5.39318081361000E-04 5.49820935194000E-04 5.60503320655000E-04 5.71368306587000E-04 
5.82419014290000E-04 5.93658618419000E-04 6.05090347894000E-04 6.16717486831000E-04 
6.28543375480000E-04 6.40571411192000E-04 6.52805049388000E-04 6.65247804555000E-04 
6.77903251256000E-04 6.90775025157000E-04 7.03866824069000E-04 7.17182409012000E-04 
7.30725605296000E-04 7.44500303619000E-04 7.58510461186000E-04 7.72760102844000E-04 
7.87253322240000E-04 8.01994282993000E-04 8.16987219899000E-04 8.32236440136000E-04 
8.47746324511000E-04 8.63521328714000E-04 8.79565984598000E-04 8.95884901482000E-04 
9.12482767475000E-04 9.29364350823000E-04 9.46534501278000E-04 9.63998151493000E-04 
9.81760318435000E-04 9.99826104832000E-04 1.01820070064000E-03 1.03688938451000E-03 
1.05589752535000E-03 1.07523058383000E-03 1.09489411397000E-03 1.11489376471000E-03 
1.13523528157000E-03 1.15592450827000E-03 1.17696738843000E-03 1.19836996725000E-03 
1.22013839329000E-03 1.24227892019000E-03 1.26479790851000E-03 1.28770182749000E-03 
1.31099725701000E-03 1.33469088939000E-03 1.35878953134000E-03 1.38330010594000E-03 
1.40822965461000E-03 1.43358533913000E-03 1.45937444368000E-03 1.48560437698000E-03 
1.51228267439000E-03 1.53941700006000E-03 1.56701514915000E-03 1.59508505009000E-03 
1.62363476681000E-03 1.65267250110000E-03 1.68220659492000E-03 1.71224553286000E-03 
1.74279794453000E-03 1.77387260703000E-03 1.80547844752000E-03 1.83762454574000E-03 
1.87032013664000E-03 1.90357461305000E-03 1.93739752831000E-03 1.97179859911000E-03 
2.00678770821000E-03 2.04237490729000E-03 2.07857041988000E-03 2.11538464424000E-03 
2.15282815638000E-03 2.19091171311000E-03 2.22964625509000E-03 2.26904291001000E-03 
2.30911299576000E-03 2.34986802370000E-03 2.39131970197000E-03 2.43347993883000E-03 
2.47636084610000E-03 2.51997474263000E-03 2.56433415786000E-03 2.60945183538000E-03 
2.65534073663000E-03 2.70201404460000E-03 2.74948516764000E-03 2.79776774327000E-03 
2.84687564215000E-03 2.89682297203000E-03 2.94762408180000E-03 2.99929356565000E-03 
3.05184626721000E-03 3.10529728386000E-03 3.15966197105000E-03 3.21495594669000E-03 
3.27119509567000E-03 3.32839557442000E-03 3.38657381552000E-03 3.44574653246000E-03 
3.50593072441000E-03 3.56714368113000E-03 3.62940298792000E-03 3.69272653067000E-03 
3.75713250100000E-03 3.82263940151000E-03 3.88926605106000E-03 3.95703159021000E-03 
4.02595548667000E-03 4.09605754094000E-03 4.16735789200000E-03 4.23987702306000E-03 
4.31363576745000E-03 4.38865531464000E-03 4.46495721628000E-03 4.54256339245000E-03 
4.62149613790000E-03 4.70177812846000E-03 4.78343242761000E-03 4.86648249305000E-03 
4.95095218345000E-03 5.03686576533000E-03 5.12424791998000E-03 5.21312375061000E-03 
5.30351878953000E-03 5.39545900549000E-03 5.48897081112000E-03 5.58408107057000E-03 
5.68081710716000E-03 5.77920671130000E-03 5.87927814840000E-03 5.98106016706000E-03 
6.08458200727000E-03 6.18987340887000E-03 6.29696462004000E-03 6.40588640600000E-03 
6.51667005788000E-03 6.62934740168000E-03 6.74395080742000E-03 6.86051319843000E-03 
6.97906806084000E-03 7.09964945317000E-03 7.22229201612000E-03 7.34703098252000E-03 
7.47390218746000E-03 7.60294207859000E-03 7.73418772656000E-03 7.86767683572000E-03 
8.00344775490000E-03 8.14153948847000E-03 8.28199170749000E-03 8.42484476118000E-03 
8.57013968846000E-03 8.71791822974000E-03 8.86822283894000E-03 9.02109669567000E-03 
9.17658371763000E-03 9.33472857323000E-03 9.49557669443000E-03 9.65917428978000E-03 
9.82556835770000E-03 9.99480669999000E-03 1.01669379355000E-02 1.03420115144000E-02 
1.05200777316000E-02 1.07011877424000E-02 1.08853935761000E-02 1.10727481514000E-02 
1.12633052916000E-02 1.14571197403000E-02 1.16542471764000E-02 1.18547442310000E-02 
1.20586685029000E-02 1.22660785756000E-02 1.24770340341000E-02 1.26915954817000E-02 
1.29098245578000E-02 1.31317839554000E-02 1.33575374391000E-02 1.35871498636000E-02 
1.38206871920000E-02 1.40582165152000E-02 1.42998060706000E-02 1.45455252622000E-02 
1.47954446806000E-02 1.50496361226000E-02 1.53081726125000E-02 1.55711284230000E-02 
1.58385790960000E-02 1.61106014650000E-02 1.63872736768000E-02 1.66686752139000E-02 
1.69548869176000E-02 1.72459910109000E-02 1.75420711224000E-02 1.78432123102000E-02 
1.81495010863000E-02 1.84610254416000E-02 1.87778748710000E-02 1.91001403991000E-02 
1.94279146068000E-02 1.97612916570000E-02 2.01003673227000E-02 2.04452390136000E-02 
2.07960058048000E-02 2.11527684648000E-02 2.15156294845000E-02 2.18846931069000E-02 
2.22600653569000E-02 2.26418540717000E-02 2.30301689317000E-02 2.34251214923000E-02 
2.38268252157000E-02 2.42353955036000E-02 2.46509497304000E-02 2.50736072767000E-02 
2.55034895640000E-02 2.59407200890000E-02 2.63854244596000E-02 2.68377304308000E-02 
2.72977679413000E-02 2.77656691510000E-02 2.82415684789000E-02 2.87256026417000E-02 
2.92179106929000E-02 2.97186340632000E-02 3.02279166007000E-02 3.07459046124000E-02 
3.12727469063000E-02 3.18085948339000E-02 3.23536023340000E-02 3.29079259767000E-02 
3.34717250084000E-02 3.40451613977000E-02 3.46283998818000E-02 3.52216080139000E-02 
3.58249562110000E-02 3.64386178036000E-02 3.70627690846000E-02 3.76975893607000E-02 
3.83432610035000E-02 3.89999695019000E-02 3.96679035155000E-02 4.03472549290000E-02 
4.10382189067000E-02 4.17409939493000E-02 4.24557819505000E-02 4.31827882550000E-02 
4.39222217177000E-02 4.46742947634000E-02 4.54392234482000E-02 4.62172275214000E-02 
4.70085304884000E-02 4.78133596753000E-02 4.86319462938000E-02 4.94645255082000E-02 
5.03113365024000E-02 5.11726225486000E-02 5.20486310778000E-02 5.29396137502000E-02 
5.38458265279000E-02 5.47675297483000E-02 5.57049881990000E-02 5.66584711935000E-02 
5.76282526492000E-02 5.86146111654000E-02 5.96178301038000E-02 6.06381976699000E-02 
6.16760069955000E-02 6.27315562231000E-02 6.38051485916000E-02 6.48970925234000E-02 
6.60077017127000E-02 6.71372952162000E-02 6.82861975441000E-02 6.94547387539000E-02 
7.06432545448000E-02 7.18520863545000E-02 7.30815814569000E-02 7.43320930621000E-02 
7.56039804181000E-02 7.68976089133000E-02 7.82133501822000E-02 7.95515822119000E-02 
8.09126894504000E-02 8.22970629176000E-02 8.37051003172000E-02 8.51372061511000E-02 
8.65937918355000E-02 8.80752758194000E-02 8.95820837044000E-02 9.11146483673000E-02 
9.26734100842000E-02 9.42588166572000E-02 9.58713235430000E-02 9.75113939835000E-02 
9.91794991394000E-02 1.00876118225000E-01 1.02601738646000E-01 1.04356856139000E-01 
1.06141974917000E-01 1.07957607809000E-01 1.09804276411000E-01 1.11682511236000E-01 
1.13592851864000E-01 1.15535847099000E-01 1.17512055126000E-01 1.19522043670000E-01 
1.21566390164000E-01 1.23645681908000E-01 1.25760516243000E-01 1.27911500719000E-01 
1.30099253273000E-01 1.32324402403000E-01 1.34587587352000E-01 1.36889458290000E-01 
1.39230676498000E-01 1.41611914565000E-01 1.44033856573000E-01 1.46497198299000E-01 
1.49002647414000E-01 1.51550923686000E-01 1.54142759183000E-01 1.56778898492000E-01 
1.59460098923000E-01 1.62187130733000E-01 1.64960777346000E-01 1.67781835577000E-01 
1.70651115862000E-01 1.73569442488000E-01 1.76537653836000E-01 1.79556602614000E-01 
1.82627156108000E-01 1.85750196428000E-01 1.88926620765000E-01 1.92157341642000E-01 
1.95443287184000E-01 1.98785401379000E-01 2.02184644352000E-01 2.05641992639000E-01 
2.09158439471000E-01 2.12734995053000E-01 2.16372686861000E-01 2.20072559935000E-01 
2.23835677174000E-01 2.27663119651000E-01 2.31555986916000E-01 2.35515397314000E-01 
2.39542488306000E-01 2.43638416799000E-01 2.47804359473000E-01 2.52041513123000E-01 
2.56351095001000E-01 2.60734343167000E-01 2.65192516843000E-01 2.69726896776000E-01 
2.74338785606000E-01 2.79029508239000E-01 2.83800412229000E-01 2.88652868164000E-01 
2.93588270061000E-01 2.98608035766000E-01 3.03713607360000E-01 3.08906451575000E-01 
3.14188060214000E-01 3.19559950583000E-01 3.25023665919000E-01 3.30580775845000E-01 
3.36232876809000E-01 3.41981592551000E-01 3.47828574565000E-01 3.53775502577000E-01 
3.59824085023000E-01 3.65976059545000E-01 3.72233193486000E-01 3.78597284399000E-01 
3.85070160564000E-01 3.91653681514000E-01 3.98349738566000E-01 4.05160255368000E-01 
4.12087188451000E-01 4.19132527787000E-01 4.26298297366000E-01 4.33586555776000E-01 
4.40999396791000E-01 4.48538949979000E-01 4.56207381305000E-01 4.64006893764000E-01 
4.71939728002000E-01 4.80008162971000E-01 4.88214516575000E-01 4.96561146341000E-01 
5.05050450094000E-01 5.13684866647000E-01 5.22466876500000E-01 5.31399002556000E-01 
5.40483810841000E-01 5.49723911245000E-01 5.59121958269000E-01 5.68680651792000E-01 
5.78402737840000E-01 5.88291009380000E-01 5.98348307123000E-01 6.08577520334000E-01 
6.18981587669000E-01 6.29563498015000E-01 6.40326291350000E-01 6.51273059616000E-01 
6.62406947609000E-01 6.73731153878000E-01 6.85248931649000E-01 6.96963589757000E-01 
7.08878493596000E-01 7.20997066087000E-01 7.33322788663000E-01 7.45859202264000E-01 
7.58609908359000E-01 7.71578569980000E-01 7.84768912772000E-01 7.98184726066000E-01 
8.11829863964000E-01 8.25708246452000E-01 8.39823860519000E-01 8.54180761309000E-01 
8.68783073281000E-01 8.83634991398000E-01 8.98740782327000E-01 9.14104785670000E-01 
9.29731415207000E-01 9.45625160169000E-01 9.61790586518000E-01 9.78232338271000E-01 
9.94955138823000E-01 1.01196379231000E+00 1.02926318500000E+00 1.04685828665000E+00 
1.06475415202000E+00 1.08295592223000E+00 1.10146882629000E+00 1.12029818262000E+00 
1.13944940051000E+00 1.15892798174000E+00 1.17873952214000E+00 1.19888971317000E+00 
1.21938434359000E+00 1.24022930112000E+00 1.26143057411000E+00 1.28299425327000E+00 
1.30492653342000E+00 1.32723371530000E+00 1.34992220733000E+00 1.37299852745000E+00 
1.39646930507000E+00 1.42034128287000E+00 1.44462131882000E+00 1.46931638810000E+00 
1.49443358512000E+00 1.51998012557000E+00 1.54596334847000E+00 1.57239071831000E+00 
1.59926982715000E+00 1.62660839685000E+00 1.65441428124000E+00 1.68269546842000E+00 
1.71146008302000E+00 1.74071638857000E+00 1.77047278983000E+00 1.80073783524000E+00 
1.83152021936000E+00 1.86282878538000E+00 1.89467252764000E+00 1.92706059424000E+00 
1.96000228963000E+00 1.99350707733000E+00 2.02758458261000E+00 2.06224459529000E+00 
2.09749707251000E+00 2.13335214164000E+00 2.16982010313000E+00 2.20691143352000E+00 
2.24463678845000E+00 2.28300700567000E+00 2.32203310820000E+00 2.36172630748000E+00 
2.40209800662000E+00 2.44315980360000E+00 2.48492349470000E+00 2.52740107782000E+00 
2.57060475593000E+00 2.61454694063000E+00 2.65924025564000E+00 2.70469754050000E+00 
2.75093185421000E+00 2.79795647898000E+00 2.84578492409000E+00 2.89443092972000E+00 
2.94390847092000E+00 2.99423176163000E+00 3.04541525877000E+00 3.09747366636000E+00 
3.15042193977000E+00 3.20427529003000E+00 3.25904918814000E+00 3.31475936961000E+00 
3.37142183887000E+00 3.42905287397000E+00 3.48766903118000E+00 3.54728714979000E+00 
3.60792435694000E+00 3.66959807252000E+00 3.73232601419000E+00 3.79612620248000E+00 
3.86101696595000E+00 3.92701694646000E+00 3.99414510453000E+00 4.06242072477000E+00 
4.13186342145000E+00 4.20249314412000E+00 4.27433018333000E+00 4.34739517646000E+00 
4.42170911369000E+00 4.49729334395000E+00 4.57416958115000E+00 4.65235991033000E+00 
4.73188679406000E+00 4.81277307888000E+00 4.89504200186000E+00 4.97871719726000E+00 
5.06382270335000E+00 5.15038296928000E+00 5.23842286216000E+00 5.32796767414000E+00 
5.41904312971000E+00 5.51167539309000E+00 5.60589107573000E+00 5.70171724397000E+00 
5.79918142683000E+00 5.89831162387000E+00 5.99913631328000E+00 6.10168446004000E+00 
6.20598552426000E+00 6.31206946960000E+00 6.41996677194000E+00 6.52970842807000E+00 
6.64132596467000E+00 6.75485144727000E+00 6.87031748956000E+00 6.98775726270000E+00 
7.10720450486000E+00 7.22869353093000E+00 7.35225924234000E+00 7.47793713714000E+00 
7.60576332015000E+00 7.73577451337000E+00 7.86800806649000E+00 8.00250196765000E+00 
8.13929485435000E+00 8.27842602454000E+00 8.41993544791000E+00 8.56386377738000E+00 
8.71025236077000E+00 8.85914325270000E+00 9.01057922662000E+00 9.16460378718000E+00 
9.32126118264000E+00 9.48059641764000E+00 9.64265526612000E+00 9.80748428444000E+00 
9.97513082478000E+00 1.01456430488000E+01 1.03190699413000E+01 1.04954613244000E+01 
1.06748678721000E+01 1.08573411244000E+01 1.10429335022000E+01 1.12316983227000E+01 
1.14236898144000E+01 1.16189631327000E+01 1.18175743758000E+01 1.20195806010000E+01 
1.22250398406000E+01 1.24340111192000E+01 1.26465544702000E+01 1.28627309531000E+01 
1.30826026713000E+01 1.33062327897000E+01 1.35336855529000E+01 1.37650263036000E+01 
1.40003215015000E+01 1.42396387425000E+01 1.44830467777000E+01 1.47306155336000E+01 
1.49824161319000E+01 1.52385209100000E+01 1.54990034418000E+01 1.57639385590000E+01 
1.60334023723000E+01 1.63074722933000E+01 1.65862270572000E+01 1.68697467448000E+01 
1.71581128057000E+01 1.74514080820000E+01 1.77497168317000E+01 1.80531247531000E+01 
1.83617190096000E+01 1.86755882541000E+01 1.89948226554000E+01 1.93195139232000E+01 
1.96497553351000E+01 1.99856417631000E+01 2.03272697008000E+01 2.06747372912000E+01 
2.10281443553000E+01 2.13875924198000E+01 2.17531847474000E+01 2.21250263656000E+01 
2.25032240973000E+01 2.28878865914000E+01 2.32791243540000E+01 2.36770497801000E+01 
2.40817771860000E+01 2.44934228421000E+01 2.49121050062000E+01 2.53379439576000E+01 
2.57710620315000E+01 2.62115836545000E+01 2.66596353798000E+01 2.71153459240000E+01 
2.75788462040000E+01 2.80502693744000E+01 2.85297508660000E+01 2.90174284245000E+01 
2.95134421503000E+01 3.00179345384000E+01 3.05310505199000E+01 3.10529375030000E+01 
3.15837454156000E+01 3.21236267488000E+01 3.26727365998000E+01 3.32312327175000E+01 
3.37992755468000E+01 3.43770282755000E+01 3.49646568808000E+01 3.55623301770000E+01 
3.61702198640000E+01 3.67885005769000E+01 3.74173499357000E+01 3.80569485967000E+01 
3.87074803041000E+01 3.93691319432000E+01 4.00420935936000E+01 4.07265585843000E+01 
4.14227235487000E+01 4.21307884816000E+01 4.28509567964000E+01 4.35834353834000E+01 
4.43284346696000E+01 4.50861686789000E+01 4.58568550935000E+01 4.66407153169000E+01 
4.74379745368000E+01 4.82488617904000E+01 4.90736100299000E+01 4.99124561895000E+01 
5.07656412535000E+01 5.16334103255000E+01 5.25160126987000E+01 5.34137019277000E+01 
5.43267359012000E+01 5.52553769163000E+01 5.61998917535000E+01 5.71605517536000E+01 
5.81376328958000E+01 5.91314158764000E+01 6.01421861902000E+01 6.11702342118000E+01 
6.22158552796000E+01 6.32793497803000E+01 6.43610232352000E+01 6.54611863883000E+01 
6.65801552950000E+01 6.77182514136000E+01 6.88758016970000E+01 7.00531386869000E+01 
7.12506006096000E+01 7.24685314727000E+01 7.37072811642000E+01 7.49672055527000E+01 
7.62486665904000E+01 7.75520324160000E+01 7.88776774615000E+01 8.02259825589000E+01 
8.15973350502000E+01 8.29921288985000E+01 8.44107648011000E+01 8.58536503045000E+01 
8.73211999219000E+01 8.88138352519000E+01 9.03319850997000E+01 9.18760856004000E+01 
9.34465803442000E+01 9.50439205038000E+01 9.66685649642000E+01 9.83209804543000E+01 
1.00001641681000E+02 1.01711031466000E+02 1.03449640883000E+02 1.05217969403000E+02 
1.07016525030000E+02 1.08845824455000E+02 1.10706393202000E+02 1.12598765774000E+02 
1.14523485815000E+02 1.16481106258000E+02 1.18472189491000E+02 1.20497307513000E+02 
1.22557042101000E+02 1.24651984978000E+02 1.26782737979000E+02 1.28949913229000E+02 
1.31154133315000E+02 1.33396031468000E+02 1.35676251740000E+02 1.37995449196000E+02 
1.40354290096000E+02 1.42753452088000E+02 1.45193624407000E+02 1.47675508066000E+02 
1.50199816063000E+02 1.52767273581000E+02 1.55378618203000E+02 1.58034600117000E+02 
1.60735982334000E+02 1.63483540911000E+02 1.66278065167000E+02 1.69120357915000E+02 
1.72011235691000E+02 1.74951528988000E+02 1.77942082495000E+02 1.80983755341000E+02 
1.84077421339000E+02 1.87223969240000E+02 1.90424302986000E+02 1.93679341971000E+02 
1.96990021304000E+02 2.00357292080000E+02 2.03782121651000E+02 
</PP_R>
    <PP_RAB>
1.27311359870000E-06 1.29487569889000E-06 1.31700979182000E-06 1.33952223617000E-06 
1.36241949935000E-06 1.38570815928000E-06 1.40939490635000E-06 1.43348654530000E-06 
1.45798999720000E-06 1.48291230141000E-06 1.50826061763000E-06 1.53404222794000E-06 
1.56026453890000E-06 1.58693508366000E-06 1.61406152417000E-06 1.64165165332000E-06 
1.66971339722000E-06 1.69825481747000E-06 1.72728411347000E-06 1.75680962477000E-06 
1.78683983348000E-06 1.81738336669000E-06 1.84844899898000E-06 1.88004565490000E-06 
1.91218241155000E-06 1.94486850121000E-06 1.97811331395000E-06 2.01192640037000E-06 
2.04631747431000E-06 2.08129641567000E-06 2.11687327321000E-06 2.15305826748000E-06 
2.18986179372000E-06 2.22729442489000E-06 2.26536691464000E-06 2.30409020047000E-06 
2.34347540682000E-06 2.38353384832000E-06 2.42427703296000E-06 2.46571666549000E-06 
2.50786465070000E-06 2.55073309689000E-06 2.59433431934000E-06 2.63868084384000E-06 
2.68378541029000E-06 2.72966097635000E-06 2.77632072119000E-06 2.82377804925000E-06 
2.87204659410000E-06 2.92114022236000E-06 2.97107303767000E-06 3.02185938478000E-06 
3.07351385362000E-06 3.12605128351000E-06 3.17948676744000E-06 3.23383565640000E-06 
3.28911356376000E-06 3.34533636980000E-06 3.40252022624000E-06 3.46068156091000E-06 
3.51983708242000E-06 3.58000378501000E-06 3.64119895341000E-06 3.70344016781000E-06 
3.76674530891000E-06 3.83113256305000E-06 3.89662042743000E-06 3.96322771546000E-06 
4.03097356212000E-06 4.09987742948000E-06 4.16995911230000E-06 4.24123874367000E-06 
4.31373680086000E-06 4.38747411116000E-06 4.46247185788000E-06 4.53875158640000E-06 
4.61633521043000E-06 4.69524501823000E-06 4.77550367907000E-06 4.85713424970000E-06 
4.94016018102000E-06 5.02460532476000E-06 5.11049394038000E-06 5.19785070202000E-06 
5.28670070558000E-06 5.37706947595000E-06 5.46898297433000E-06 5.56246760569000E-06 
5.65755022635000E-06 5.75425815172000E-06 5.85261916410000E-06 5.95266152071000E-06 
6.05441396180000E-06 6.15790571885000E-06 6.26316652306000E-06 6.37022661381000E-06 
6.47911674740000E-06 6.58986820585000E-06 6.70251280592000E-06 6.81708290822000E-06 
6.93361142652000E-06 7.05213183722000E-06 7.17267818892000E-06 7.29528511228000E-06 
7.41998782987000E-06 7.54682216639000E-06 7.67582455887000E-06 7.80703206722000E-06 
7.94048238481000E-06 8.07621384934000E-06 8.21426545382000E-06 8.35467685781000E-06 
8.49748839879000E-06 8.64274110376000E-06 8.79047670100000E-06 8.94073763210000E-06 
9.09356706410000E-06 9.24900890196000E-06 9.40710780110000E-06 9.56790918027000E-06 
9.73145923460000E-06 9.89780494886000E-06 1.00669941110000E-05 1.02390753256000E-05 
1.04140980285000E-05 1.05921125003000E-05 1.07731698810000E-05 1.09573221849000E-05 
1.11446223155000E-05 1.13351240804000E-05 1.15288822071000E-05 1.17259523585000E-05 
1.19263911492000E-05 1.21302561613000E-05 1.23376059612000E-05 1.25485001166000E-05 
1.27629992132000E-05 1.29811648726000E-05 1.32030597694000E-05 1.34287476497000E-05 
1.36582933495000E-05 1.38917628126000E-05 1.41292231103000E-05 1.43707424605000E-05 
1.46163902468000E-05 1.48662370393000E-05 1.51203546139000E-05 1.53788159739000E-05 
1.56416953701000E-05 1.59090683227000E-05 1.61810116427000E-05 1.64576034543000E-05 
1.67389232169000E-05 1.70250517482000E-05 1.73160712475000E-05 1.76120653189000E-05 
1.79131189959000E-05 1.82193187653000E-05 1.85307525925000E-05 1.88475099463000E-05 
1.91696818250000E-05 1.94973607823000E-05 1.98306409541000E-05 2.01696180853000E-05 
2.05143895575000E-05 2.08650544168000E-05 2.12217134025000E-05 2.15844689758000E-05 
2.19534253494000E-05 2.23286885172000E-05 2.27103662852000E-05 2.30985683020000E-05 
2.34934060904000E-05 2.38949930798000E-05 2.43034446384000E-05 2.47188781062000E-05 
2.51414128295000E-05 2.55711701941000E-05 2.60082736611000E-05 2.64528488018000E-05 
2.69050233341000E-05 2.73649271590000E-05 2.78326923979000E-05 2.83084534308000E-05 
2.87923469345000E-05 2.92845119224000E-05 2.97850897838000E-05 3.02942243252000E-05 
3.08120618110000E-05 3.13387510059000E-05 3.18744432176000E-05 3.24192923400000E-05 
3.29734548977000E-05 3.35370900910000E-05 3.41103598413000E-05 3.46934288379000E-05 
3.52864645853000E-05 3.58896374511000E-05 3.65031207153000E-05 3.71270906196000E-05 
3.77617264187000E-05 3.84072104311000E-05 3.90637280918000E-05 3.97314680056000E-05 
4.04106220014000E-05 4.11013851869000E-05 4.18039560050000E-05 4.25185362908000E-05 
4.32453313292000E-05 4.39845499145000E-05 4.47364044099000E-05 4.55011108085000E-05 
4.62788887958000E-05 4.70699618123000E-05 4.78745571180000E-05 4.86929058576000E-05 
4.95252431267000E-05 5.03718080399000E-05 5.12328437988000E-05 5.21085977622000E-05 
5.29993215175000E-05 5.39052709523000E-05 5.48267063283000E-05 5.57638923561000E-05 
5.67170982711000E-05 5.76865979109000E-05 5.86726697940000E-05 5.96755971997000E-05 
6.06956682498000E-05 6.17331759908000E-05 6.27884184787000E-05 6.38616988642000E-05 
6.49533254801000E-05 6.60636119294000E-05 6.71928771761000E-05 6.83414456361000E-05 
6.95096472710000E-05 7.06978176825000E-05 7.19062982089000E-05 7.31354360234000E-05 
7.43855842334000E-05 7.56571019824000E-05 7.69503545527000E-05 7.82657134708000E-05 
7.96035566139000E-05 8.09642683184000E-05 8.23482394905000E-05 8.37558677182000E-05 
8.51875573861000E-05 8.66437197907000E-05 8.81247732593000E-05 8.96311432701000E-05 
9.11632625738000E-05 9.27215713188000E-05 9.43065171771000E-05 9.59185554727000E-05 
9.75581493133000E-05 9.92257697223000E-05 1.00921895775000E-04 1.02647014735000E-04 
1.04401622197000E-04 1.06186222224000E-04 1.08001327498000E-04 1.09847459463000E-04 
1.11725148478000E-04 1.13634933966000E-04 1.15577364572000E-04 1.17552998318000E-04 
1.19562402766000E-04 1.21606155178000E-04 1.23684842685000E-04 1.25799062455000E-04 
1.27949421861000E-04 1.30136538659000E-04 1.32361041168000E-04 1.34623568441000E-04 
1.36924770461000E-04 1.39265308318000E-04 1.41645854404000E-04 1.44067092602000E-04 
1.46529718488000E-04 1.49034439526000E-04 1.51581975276000E-04 1.54173057593000E-04 
1.56808430847000E-04 1.59488852128000E-04 1.62215091470000E-04 1.64987932070000E-04 
1.67808170509000E-04 1.70676616988000E-04 1.73594095557000E-04 1.76561444350000E-04 
1.79579515830000E-04 1.82649177030000E-04 1.85771309803000E-04 1.88946811079000E-04 
1.92176593118000E-04 1.95461583773000E-04 1.98802726759000E-04 2.02200981921000E-04 
2.05657325513000E-04 2.09172750474000E-04 2.12748266719000E-04 2.16384901424000E-04 
2.20083699324000E-04 2.23845723013000E-04 2.27672053245000E-04 2.31563789253000E-04 
2.35522049057000E-04 2.39547969788000E-04 2.43642708015000E-04 2.47807440077000E-04 
2.52043362422000E-04 2.56351691948000E-04 2.60733666354000E-04 2.65190544496000E-04 
2.69723606751000E-04 2.74334155379000E-04 2.79023514900000E-04 2.83793032479000E-04 
2.88644078303000E-04 2.93578045986000E-04 2.98596352961000E-04 3.03700440890000E-04 
3.08891776078000E-04 3.14171849897000E-04 3.19542179208000E-04 3.25004306804000E-04 
3.30559801849000E-04 3.36210260328000E-04 3.41957305508000E-04 3.47802588406000E-04 
3.53747788257000E-04 3.59794613002000E-04 3.65944799777000E-04 3.72200115411000E-04 
3.78562356937000E-04 3.85033352102000E-04 3.91614959898000E-04 3.98309071095000E-04 
4.05117608779000E-04 4.12042528914000E-04 4.19085820894000E-04 4.26249508120000E-04 
4.33535648582000E-04 4.40946335446000E-04 4.48483697660000E-04 4.56149900561000E-04 
4.63947146502000E-04 4.71877675481000E-04 4.79943765784000E-04 4.88147734644000E-04 
4.96491938902000E-04 5.04978775687000E-04 5.13610683102000E-04 5.22390140928000E-04 
5.31319671332000E-04 5.40401839597000E-04 5.49639254852000E-04 5.59034570830000E-04 
5.68590486622000E-04 5.78309747458000E-04 5.88195145494000E-04 5.98249520613000E-04 
6.08475761243000E-04 6.18876805185000E-04 6.29455640456000E-04 6.40215306153000E-04 
6.51158893319000E-04 6.62289545834000E-04 6.73610461320000E-04 6.85124892056000E-04 
6.96836145916000E-04 7.08747587316000E-04 7.20862638184000E-04 7.33184778938000E-04 
7.45717549491000E-04 7.58464550266000E-04 7.71429443230000E-04 7.84615952944000E-04 
7.98027867639000E-04 8.11669040298000E-04 8.25543389766000E-04 8.39654901874000E-04 
8.54007630588000E-04 8.68605699168000E-04 8.83453301358000E-04 8.98554702585000E-04 
9.13914241190000E-04 9.29536329672000E-04 9.45425455955000E-04 9.61586184676000E-04 
9.78023158500000E-04 9.94741099452000E-04 1.01174481027000E-03 1.02903917580000E-03 
1.04662916437000E-03 1.06451982924000E-03 1.08271631007000E-03 1.10122383433000E-03 
1.12004771890000E-03 1.13919337150000E-03 1.15866629231000E-03 1.17847207553000E-03 
1.19861641097000E-03 1.21910508571000E-03 1.23994398575000E-03 1.26113909770000E-03 
1.28269651051000E-03 1.30462241721000E-03 1.32692311669000E-03 1.34960501549000E-03 
1.37267462971000E-03 1.39613858678000E-03 1.42000362745000E-03 1.44427660769000E-03 
1.46896450064000E-03 1.49407439867000E-03 1.51961351537000E-03 1.54558918762000E-03 
1.57200887774000E-03 1.59888017559000E-03 1.62621080077000E-03 1.65400860485000E-03 
1.68228157359000E-03 1.71103782927000E-03 1.74028563302000E-03 1.77003338715000E-03 
1.80028963762000E-03 1.83106307646000E-03 1.86236254430000E-03 1.89419703286000E-03 
1.92657568757000E-03 1.95950781019000E-03 1.99300286149000E-03 2.02707046395000E-03 
2.06172040452000E-03 2.09696263747000E-03 2.13280728721000E-03 2.16926465121000E-03 
2.20634520296000E-03 2.24405959500000E-03 2.28241866194000E-03 2.32143342359000E-03 
2.36111508814000E-03 2.40147505537000E-03 2.44252491991000E-03 2.48427647460000E-03 
2.52674171384000E-03 2.56993283708000E-03 2.61386225230000E-03 2.65854257956000E-03 
2.70398665466000E-03 2.75020753280000E-03 2.79721849235000E-03 2.84503303864000E-03 
2.89366490787000E-03 2.94312807103000E-03 2.99343673794000E-03 3.04460536129000E-03 
3.09664864085000E-03 3.14958152764000E-03 3.20341922826000E-03 3.25817720923000E-03 
3.31387120146000E-03 3.37051720477000E-03 3.42813149244000E-03 3.48673061596000E-03 
3.54633140971000E-03 3.60695099585000E-03 3.66860678922000E-03 3.73131650232000E-03 
3.79509815045000E-03 3.85997005684000E-03 3.92595085794000E-03 3.99305950875000E-03 
4.06131528828000E-03 4.13073780511000E-03 4.20134700297000E-03 4.27316316653000E-03 