<UPF version="2.0.1">
  <PP_INFO>
Generated using Vanderbilt code, version   7  3  6
Author: kfg        Generation date:   13    5 2013
Automatically converted from original USPP format to UPF.v1.

Futher converted to UPF.v2 format.
Convert Q_IJ to Q_IJL use the same routine as 'upflib/upf_to_internal.f90' of QE.
The conversion is done by using PseudoPotentialIO.jl package.
Converted by: JYU on 2024-04-30

1        The Pseudo was generated with a Scalar-Relativistic Calculation
2.20000000000E+00    Local Potential cutoff radius
nl pn  l   occ               Rcut            Rcut US             E pseu
5D  5  2 10.00      0.00000000000      2.10000000000     -0.50548449700
6S  6  0  1.00      0.00000000000      2.30000000000     -0.42348888500
6P  6  1  0.00      0.00000000000      2.35000000000     -0.05658139200
</PP_INFO>
  <PP_HEADER element="Au" pseudo_type="US" relativistic="scalar" is_ultrasoft="T" is_paw="F" is_coulomb="F" has_so="F" has_wfc="F" has_gipaw="F" core_correction="T" functional="PBE" z_valence="11.0" total_psenergy="-114.750589016" wfc_cutoff="0.0" rho_cutoff="0.0" l_max="3" mesh_size="985" number_of_wfc="3" number_of_proj="7"/>
  <PP_MESH>
    <PP_R>
0.00000000000000E+00 1.93992273245000E-07 3.91244844727000E-07 5.91812508095000E-07 
7.95750977878000E-07 1.00311690496000E-06 1.21396789233000E-06 1.42836251105000E-06 
1.64636031657000E-06 1.86802186523000E-06 2.09340873111000E-06 2.32258352312000E-06 
2.55560990241000E-06 2.79255260001000E-06 3.03347743487000E-06 3.27845133211000E-06 
3.52754234160000E-06 3.78081965689000E-06 4.03835363442000E-06 4.30021581306000E-06 
4.56647893399000E-06 4.83721696090000E-06 5.11250510054000E-06 5.39241982361000E-06 
5.67703888599000E-06 5.96644135037000E-06 6.26070760818000E-06 6.55991940194000E-06 
6.86415984796000E-06 7.17351345944000E-06 7.48806616991000E-06 7.80790535716000E-06 
8.13311986747000E-06 8.46380004027000E-06 8.80003773332000E-06 9.14192634812000E-06 
9.48956085594000E-06 9.84303782415000E-06 1.02024554431000E-05 1.05679135532000E-05 
1.09395136732000E-05 1.13173590275000E-05 1.17015545756000E-05 1.20922070411000E-05 
1.24894249410000E-05 1.28933186161000E-05 1.33040002618000E-05 1.37215839589000E-05 
1.41461857056000E-05 1.45779234495000E-05 1.50169171206000E-05 1.54632886643000E-05 
1.59171620757000E-05 1.63786634336000E-05 1.68479209358000E-05 1.73250649347000E-05 
1.78102279732000E-05 1.83035448220000E-05 1.88051525167000E-05 1.93151903961000E-05 
1.98338001407000E-05 2.03611258119000E-05 2.08973138926000E-05 2.14425133273000E-05 
2.19968755638000E-05 2.25605545952000E-05 2.31337070027000E-05 2.37164919989000E-05 
2.43090714723000E-05 2.49116100321000E-05 2.55242750540000E-05 2.61472367266000E-05 
2.67806680990000E-05 2.74247451283000E-05 2.80796467289000E-05 2.87455548222000E-05 
2.94226543869000E-05 3.01111335107000E-05 3.08111834420000E-05 3.15229986437000E-05 
3.22467768470000E-05 3.29827191058000E-05 3.37310298534000E-05 3.44919169586000E-05 
3.52655917839000E-05 3.60522692439000E-05 3.68521678653000E-05 3.76655098471000E-05 
3.84925211230000E-05 3.93334314237000E-05 4.01884743406000E-05 4.10578873914000E-05 
4.19419120851000E-05 4.28407939898000E-05 4.37547828009000E-05 4.46841324099000E-05 
4.56291009754000E-05 4.65899509949000E-05 4.75669493772000E-05 4.85603675172000E-05 
4.95704813706000E-05 5.05975715312000E-05 5.16419233083000E-05 5.27038268064000E-05 
5.37835770056000E-05 5.48814738434000E-05 5.59978222981000E-05 5.71329324738000E-05 
5.82871196862000E-05 5.94607045501000E-05 6.06540130690000E-05 6.18673767252000E-05 
6.31011325718000E-05 6.43556233268000E-05 6.56311974679000E-05 6.69282093294000E-05 
6.82470192008000E-05 6.95879934266000E-05 7.09515045083000E-05 7.23379312077000E-05 
7.37476586523000E-05 7.51810784421000E-05 7.66385887584000E-05 7.81205944747000E-05 
7.96275072686000E-05 8.11597457368000E-05 8.27177355110000E-05 8.43019093761000E-05 
8.59127073905000E-05 8.75505770085000E-05 8.92159732045000E-05 9.09093585991000E-05 
9.26312035882000E-05 9.43819864730000E-05 9.61621935934000E-05 9.79723194629000E-05 
9.98128669057000E-05 1.01684347197000E-04 1.03587280204000E-04 1.05522194532000E-04 
1.07489627670000E-04 1.09490126139000E-04 1.11524245646000E-04 1.13592551238000E-04 
1.15695617457000E-04 1.17834028501000E-04 1.20008378388000E-04 1.22219271118000E-04 
1.24467320841000E-04 1.26753152031000E-04 1.29077399654000E-04 1.31440709352000E-04 
1.33843737612000E-04 1.36287151960000E-04 1.38771631136000E-04 1.41297865291000E-04 
1.43866556171000E-04 1.46478417319000E-04 1.49134174268000E-04 1.51834564746000E-04 
1.54580338878000E-04 1.57372259398000E-04 1.60211101856000E-04 1.63097654839000E-04 
1.66032720185000E-04 1.69017113208000E-04 1.72051662927000E-04 1.75137212291000E-04 
1.78274618417000E-04 1.81464752827000E-04 1.84708501689000E-04 1.88006766067000E-04 
1.91360462166000E-04 1.94770521589000E-04 1.98237891598000E-04 2.01763535372000E-04 
2.05348432281000E-04 2.08993578151000E-04 2.12699985547000E-04 2.16468684051000E-04 
2.20300720547000E-04 2.24197159514000E-04 2.28159083321000E-04 2.32187592530000E-04 
2.36283806194000E-04 2.40448862179000E-04 2.44683917472000E-04 2.48990148502000E-04 
2.53368751474000E-04 2.57820942694000E-04 2.62347958911000E-04 2.66951057657000E-04 
2.71631517603000E-04 2.76390638904000E-04 2.81229743570000E-04 2.86150175829000E-04 
2.91153302497000E-04 2.96240513365000E-04 3.01413221580000E-04 3.06672864037000E-04 
3.12020901784000E-04 3.17458820420000E-04 3.22988130514000E-04 3.28610368019000E-04 
3.34327094706000E-04 3.40139898589000E-04 3.46050394376000E-04 3.52060223907000E-04 
3.58171056619000E-04 3.64384590005000E-04 3.70702550086000E-04 3.77126691891000E-04 
3.83658799945000E-04 3.90300688766000E-04 3.97054203365000E-04 4.03921219761000E-04 
4.10903645503000E-04 4.18003420200000E-04 4.25222516056000E-04 4.32562938421000E-04 
4.40026726351000E-04 4.47615953166000E-04 4.55332727034000E-04 4.63179191553000E-04 
4.71157526348000E-04 4.79269947673000E-04 4.87518709031000E-04 4.95906101798000E-04 
5.04434455858000E-04 5.13106140255000E-04 5.21923563845000E-04 5.30889175968000E-04 
5.40005467131000E-04 5.49274969695000E-04 5.58700258582000E-04 5.68283951988000E-04 
5.78028712112000E-04 5.87937245893000E-04 5.98012305768000E-04 6.08256690427000E-04 
6.18673245599000E-04 6.29264864839000E-04 6.40034490331000E-04 6.50985113707000E-04 
6.62119776878000E-04 6.73441572877000E-04 6.84953646720000E-04 6.96659196279000E-04 
7.08561473171000E-04 7.20663783662000E-04 7.32969489581000E-04 7.45482009259000E-04 
7.58204818477000E-04 7.71141451430000E-04 7.84295501710000E-04 7.97670623306000E-04 
8.11270531614000E-04 8.25099004474000E-04 8.39159883218000E-04 8.53457073735000E-04 
8.67994547560000E-04 8.82776342973000E-04 8.97806566124000E-04 9.13089392170000E-04 
9.28629066440000E-04 9.44429905610000E-04 9.60496298904000E-04 9.76832709311000E-04 
9.93443674829000E-04 1.01033380972000E-03 1.02750780580000E-03 1.04497043373000E-03 
1.06272654436000E-03 1.08078107005000E-03 1.09913902606000E-03 1.11780551195000E-03 
1.13678571296000E-03 1.15608490150000E-03 1.17570843859000E-03 1.19566177532000E-03 
1.21595045442000E-03 1.23658011176000E-03 1.25755647794000E-03 1.27888537986000E-03 
1.30057274235000E-03 1.32262458983000E-03 1.34504704793000E-03 1.36784634528000E-03 
1.39102881515000E-03 1.41460089727000E-03 1.43856913958000E-03 1.46294020010000E-03 
1.48772084871000E-03 1.51291796909000E-03 1.53853856060000E-03 1.56458974024000E-03 
1.59107874460000E-03 1.61801293193000E-03 1.64539978410000E-03 1.67324690877000E-03 
1.70156204141000E-03 1.73035304752000E-03 1.75962792479000E-03 1.78939480533000E-03 
1.81966195789000E-03 1.85043779022000E-03 1.88173085136000E-03 1.91354983401000E-03 
1.94590357701000E-03 1.97880106770000E-03 2.01225144448000E-03 2.04626399935000E-03 
2.08084818046000E-03 2.11601359473000E-03 2.15177001058000E-03 2.18812736057000E-03 
2.22509574419000E-03 2.26268543068000E-03 2.30090686186000E-03 2.33977065504000E-03 
2.37928760597000E-03 2.41946869184000E-03 2.46032507431000E-03 2.50186810264000E-03 
2.54410931682000E-03 2.58706045081000E-03 2.63073343575000E-03 2.67514040331000E-03 
2.72029368903000E-03 2.76620583579000E-03 2.81288959725000E-03 2.86035794144000E-03 
2.90862405430000E-03 2.95770134340000E-03 3.00760344163000E-03 3.05834421101000E-03 
3.10993774653000E-03 3.16239838005000E-03 3.21574068432000E-03 3.26997947697000E-03 
3.32512982469000E-03 3.38120704737000E-03 3.43822672239000E-03 3.49620468890000E-03 
3.55515705227000E-03 3.61510018854000E-03 3.67605074896000E-03 3.73802566464000E-03 
3.80104215122000E-03 3.86511771370000E-03 3.93027015125000E-03 3.99651756220000E-03 
4.06387834901000E-03 4.13237122347000E-03 4.20201521180000E-03 4.27282966002000E-03 
4.34483423924000E-03 4.41804895121000E-03 4.49249413382000E-03 4.56819046676000E-03 
4.64515897729000E-03 4.72342104603000E-03 4.80299841296000E-03 4.88391318340000E-03 
4.96618783422000E-03 5.04984521999000E-03 5.13490857943000E-03 5.22140154179000E-03 
5.30934813346000E-03 5.39877278460000E-03 5.48970033597000E-03 5.58215604581000E-03 
5.67616559686000E-03 5.77175510348000E-03 5.86895111893000E-03 5.96778064273000E-03 
6.06827112815000E-03 6.17045048988000E-03 6.27434711172000E-03 6.37998985451000E-03 
6.48740806414000E-03 6.59663157969000E-03 6.70769074173000E-03 6.82061640073000E-03 
6.93543992568000E-03 7.05219321272000E-03 7.17090869407000E-03 7.29161934702000E-03 
7.41435870309000E-03 7.53916085733000E-03 7.66606047781000E-03 7.79509281524000E-03 
7.92629371275000E-03 8.05969961590000E-03 8.19534758273000E-03 8.33327529411000E-03 
8.47352106418000E-03 8.61612385099000E-03 8.76112326735000E-03 8.90855959181000E-03 
9.05847377985000E-03 9.21090747526000E-03 9.36590302172000E-03 9.52350347455000E-03 
9.68375261265000E-03 9.84669495071000E-03 1.00123757515000E-02 1.01808410386000E-02 
1.03521376090000E-02 1.05263130462000E-02 1.07034157332000E-02 1.08834948666000E-02 
1.10666004693000E-02 1.12527834053000E-02 1.14420953933000E-02 1.16345890211000E-02 
1.18303177603000E-02 1.20293359815000E-02 1.22316989686000E-02 1.24374629349000E-02 
1.26466850384000E-02 1.28594233977000E-02 1.30757371082000E-02 1.32956862584000E-02 
1.35193319466000E-02 1.37467362982000E-02 1.39779624824000E-02 1.42130747303000E-02 
1.44521383523000E-02 1.46952197565000E-02 1.49423864671000E-02 1.51937071431000E-02 
1.54492515974000E-02 1.57090908162000E-02 1.59732969788000E-02 1.62419434775000E-02 
1.65151049380000E-02 1.67928572402000E-02 1.70752775394000E-02 1.73624442874000E-02 
1.76544372547000E-02 1.79513375522000E-02 1.82532276543000E-02 1.85601914211000E-02 
1.88723141225000E-02 1.91896824610000E-02 1.95123845968000E-02 1.98405101712000E-02 
2.01741503324000E-02 2.05133977605000E-02 2.08583466928000E-02 2.12090929509000E-02 
2.15657339665000E-02 2.19283688089000E-02 2.22970982122000E-02 2.26720246037000E-02 
2.30532521320000E-02 2.34408866960000E-02 2.38350359747000E-02 2.42358094563000E-02 
2.46433184695000E-02 2.50576762138000E-02 2.54789977912000E-02 2.59074002383000E-02 
2.63430025584000E-02 2.67859257550000E-02 2.72362928652000E-02 2.76942289939000E-02 
2.81598613484000E-02 2.86333192742000E-02 2.91147342902000E-02 2.96042401261000E-02 
3.01019727587000E-02 3.06080704505000E-02 3.11226737872000E-02 3.16459257177000E-02 
3.21779715929000E-02 3.27189592070000E-02 3.32690388376000E-02 3.38283632882000E-02 
3.43970879303000E-02 3.49753707467000E-02 3.55633723751000E-02 3.61612561531000E-02 
3.67691881635000E-02 3.73873372801000E-02 3.80158752149000E-02 3.86549765660000E-02 
3.93048188655000E-02 3.99655826294000E-02 4.06374514074000E-02 4.13206118341000E-02 
4.20152536806000E-02 4.27215699075000E-02 4.34397567183000E-02 4.41700136139000E-02 
4.49125434481000E-02 4.56675524841000E-02 4.64352504513000E-02 4.72158506042000E-02 
4.80095697812000E-02 4.88166284650000E-02 4.96372508436000E-02 5.04716648730000E-02 
5.13201023402000E-02 5.21827989279000E-02 5.30599942794000E-02 5.39519320659000E-02 
5.48588600534000E-02 5.57810301724000E-02 5.67186985870000E-02 5.76721257668000E-02 
5.86415765588000E-02 5.96273202611000E-02 6.06296306977000E-02 6.16487862947000E-02 
6.26850701573000E-02 6.37387701490000E-02 6.48101789708000E-02 6.58995942432000E-02 
6.70073185887000E-02 6.81336597154000E-02 6.92789305033000E-02 7.04434490904000E-02 
7.16275389617000E-02 7.28315290385000E-02 7.40557537703000E-02 7.53005532275000E-02 
7.65662731955000E-02 7.78532652716000E-02 7.91618869617000E-02 8.04925017802000E-02 
8.18454793510000E-02 8.32211955099000E-02 8.46200324090000E-02 8.60423786233000E-02 
8.74886292579000E-02 8.89591860585000E-02 9.04544575226000E-02 9.19748590129000E-02 
9.35208128730000E-02 9.50927485444000E-02 9.66911026860000E-02 9.83163192955000E-02 
9.99688498322000E-02 1.01649153343000E-01 1.03357696590000E-01 1.05094954179000E-01 
1.06861408693000E-01 1.08657550825000E-01 1.10483879516000E-01 1.12340902090000E-01 
1.14229134398000E-01 1.16149100963000E-01 1.18101335120000E-01 1.20086379170000E-01 
1.22104784525000E-01 1.24157111868000E-01 1.26243931302000E-01 1.28365822513000E-01 
1.30523374929000E-01 1.32717187883000E-01 1.34947870783000E-01 1.37216043276000E-01 
1.39522335426000E-01 1.41867387884000E-01 1.44251852068000E-01 1.46676390345000E-01 
1.49141676213000E-01 1.51648394490000E-01 1.54197241503000E-01 1.56788925281000E-01 
1.59424165752000E-01 1.62103694946000E-01 1.64828257192000E-01 1.67598609332000E-01 
1.70415520925000E-01 1.73279774464000E-01 1.76192165596000E-01 1.79153503334000E-01 
1.82164610293000E-01 1.85226322911000E-01 1.88339491682000E-01 1.91504981397000E-01 
1.94723671377000E-01 1.97996455724000E-01 2.01324243567000E-01 2.04707959311000E-01 
2.08148542900000E-01 2.11646950074000E-01 2.15204152635000E-01 2.18821138716000E-01 
2.22498913062000E-01 2.26238497297000E-01 2.30040930221000E-01 2.33907268089000E-01 
2.37838584909000E-01 2.41835972738000E-01 2.45900541987000E-01 2.50033421730000E-01 
2.54235760015000E-01 2.58508724187000E-01 2.62853501205000E-01 2.67271297982000E-01 
2.71763341711000E-01 2.76330880211000E-01 2.80975182272000E-01 2.85697538008000E-01 
2.90499259214000E-01 2.95381679734000E-01 3.00346155826000E-01 3.05394066543000E-01 
3.10526814116000E-01 3.15745824340000E-01 3.21052546974000E-01 3.26448456142000E-01 
3.31935050742000E-01 3.37513854864000E-01 3.43186418211000E-01 3.48954316532000E-01 
3.54819152058000E-01 3.60782553947000E-01 3.66846178738000E-01 3.73011710811000E-01 
3.79280862854000E-01 3.85655376336000E-01 3.92137021998000E-01 3.98727600339000E-01 
4.05428942117000E-01 4.12242908858000E-01 4.19171393376000E-01 4.26216320294000E-01 
4.33379646581000E-01 4.40663362097000E-01 4.48069490141000E-01 4.55600088021000E-01 
4.63257247617000E-01 4.71043095966000E-01 4.78959795855000E-01 4.87009546419000E-01 
4.95194583749000E-01 5.03517181521000E-01 5.11979651622000E-01 5.20584344790000E-01 
5.29333651275000E-01 5.38230001495000E-01 5.47275866716000E-01 5.56473759737000E-01 
5.65826235587000E-01 5.75335892235000E-01 5.85005371316000E-01 5.94837358856000E-01 
6.04834586027000E-01 6.14999829901000E-01 6.25335914222000E-01 6.35845710191000E-01 
6.46532137264000E-01 6.57398163960000E-01 6.68446808691000E-01 6.79681140596000E-01 
6.91104280395000E-01 7.02719401255000E-01 7.14529729673000E-01 7.26538546373000E-01 
7.38749187214000E-01 7.51165044119000E-01 7.63789566018000E-01 7.76626259802000E-01 
7.89678691303000E-01 8.02950486280000E-01 8.16445331429000E-01 8.30166975404000E-01 
8.44119229860000E-01 8.58305970515000E-01 8.72731138220000E-01 8.87398740060000E-01 
9.02312850462000E-01 9.17477612331000E-01 9.32897238198000E-01 9.48576011392000E-01 
9.64518287228000E-01 9.80728494219000E-01 9.97211135304000E-01 1.01397078910000E+00 
1.03101211118000E+00 1.04833983534000E+00 1.06595877496000E+00 1.08387382431000E+00 
1.10208995989000E+00 1.12061224186000E+00 1.13944581542000E+00 1.15859591225000E+00 
1.17806785193000E+00 1.19786704346000E+00 1.21799898674000E+00 1.23846927411000E+00 
1.25928359190000E+00 1.28044772199000E+00 1.30196754344000E+00 1.32384903412000E+00 
1.34609827236000E+00 1.36872143865000E+00 1.39172481734000E+00 1.41511479842000E+00 
1.43889787925000E+00 1.46308066640000E+00 1.48766987745000E+00 1.51267234291000E+00 
1.53809500806000E+00 1.56394493492000E+00 1.59022930420000E+00 1.61695541727000E+00 
1.64413069822000E+00 1.67176269593000E+00 1.69985908611000E+00 1.72842767352000E+00 
1.75747639404000E+00 1.78701331696000E+00 1.81704664716000E+00 1.84758472743000E+00 
1.87863604077000E+00 1.91020921274000E+00 1.94231301386000E+00 1.97495636208000E+00 
2.00814832519000E+00 2.04189812340000E+00 2.07621513187000E+00 2.11110888332000E+00 
2.14658907069000E+00 2.18266554981000E+00 2.21934834215000E+00 2.25664763763000E+00 
2.29457379738000E+00 2.33313735671000E+00 2.37234902795000E+00 2.41221970350000E+00 
2.45276045880000E+00 2.49398255542000E+00 2.53589744421000E+00 2.57851676848000E+00 
2.62185236719000E+00 2.66591627829000E+00 2.71072074203000E+00 2.75627820440000E+00 
2.80260132053000E+00 2.84970295826000E+00 2.89759620167000E+00 2.94629435476000E+00 
2.99581094509000E+00 3.04615972760000E+00 3.09735468838000E+00 3.14941004859000E+00 
3.20234026838000E+00 3.25616005093000E+00 3.31088434653000E+00 3.36652835672000E+00 
3.42310753853000E+00 3.48063760877000E+00 3.53913454837000E+00 3.59861460686000E+00 
3.65909430687000E+00 3.72059044870000E+00 3.78312011500000E+00 3.84670067554000E+00 
3.91134979198000E+00 3.97708542283000E+00 4.04392582841000E+00 4.11188957594000E+00 
4.18099554465000E+00 4.25126293111000E+00 4.32271125448000E+00 4.39536036198000E+00 
4.46923043439000E+00 4.54434199163000E+00 4.62071589852000E+00 4.69837337053000E+00 
4.77733597966000E+00 4.85762566050000E+00 4.93926471623000E+00 5.02227582491000E+00 
5.10668204571000E+00 5.19250682534000E+00 5.27977400457000E+00 5.36850782485000E+00 
5.45873293502000E+00 5.55047439821000E+00 5.64375769874000E+00 5.73860874924000E+00 
5.83505389783000E+00 5.93311993545000E+00 6.03283410330000E+00 6.13422410040000E+00 
6.23731809128000E+00 6.34214471384000E+00 6.44873308725000E+00 6.55711282008000E+00 
6.66731401851000E+00 6.77936729468000E+00 6.89330377524000E+00 7.00915510993000E+00 
7.12695348043000E+00 7.24673160926000E+00 7.36852276890000E+00 7.49236079101000E+00 
7.61828007582000E+00 7.74631560175000E+00 7.87650293502000E+00 8.00887823962000E+00 
8.14347828733000E+00 8.28034046792000E+00 8.41950279952000E+00 8.56100393925000E+00 
8.70488319389000E+00 8.85118053081000E+00 8.99993658911000E+00 9.15119269087000E+00 
9.30499085266000E+00 9.46137379716000E+00 9.62038496510000E+00 9.78206852726000E+00 
9.94646939678000E+00 1.01136332416000E+01 1.02836064973000E+01 1.04564363796000E+01 
1.06321708981000E+01 1.08108588689000E+01 1.09925499288000E+01 1.11772945487000E+01 
1.13651440477000E+01 1.15561506074000E+01 1.17503672865000E+01 1.19478480353000E+01 
1.21486477108000E+01 1.23528220920000E+01 1.25604278952000E+01 1.27715227902000E+01 
1.29861654158000E+01 1.32044153962000E+01 1.34263333579000E+01 1.36519809462000E+01 
1.38814208424000E+01 1.41147167813000E+01 1.43519335688000E+01 1.45931371000000E+01 
1.48383943775000E+01 1.50877735298000E+01 1.53413438305000E+01 1.55991757175000E+01 
1.58613408123000E+01 1.61279119404000E+01 1.63989631509000E+01 1.66745697376000E+01 
1.69548082597000E+01 1.72397565629000E+01 1.75294938015000E+01 1.78241004598000E+01 
1.81236583749000E+01 1.84282507594000E+01 1.87379622241000E+01 1.90528788020000E+01 
1.93730879719000E+01 1.96986786830000E+01 2.00297413791000E+01 2.03663680242000E+01 
2.07086521280000E+01 2.10566887715000E+01 2.14105746339000E+01 2.17704080189000E+01 
2.21362888827000E+01 2.25083188612000E+01 2.28866012984000E+01 2.32712412752000E+01 
2.36623456386000E+01 2.40600230311000E+01 2.44643839213000E+01 2.48755406341000E+01 
2.52936073826000E+01 2.57187002989000E+01 2.61509374672000E+01 2.65904389562000E+01 
2.70373268524000E+01 2.74917252942000E+01 2.79537605064000E+01 2.84235608350000E+01 
2.89012567831000E+01 2.93869810472000E+01 2.98808685537000E+01 3.03830564969000E+01 
3.08936843765000E+01 3.14128940370000E+01 3.19408297065000E+01 3.24776380374000E+01 
3.30234681464000E+01 3.35784716566000E+01 3.41428027391000E+01 3.47166181562000E+01 
3.53000773048000E+01 3.58933422607000E+01 3.64965778234000E+01 3.71099515622000E+01 
3.77336338628000E+01 3.83677979741000E+01 3.90126200571000E+01 3.96682792330000E+01 
4.03349576336000E+01 4.10128404517000E+01 4.17021159924000E+01 4.24029757256000E+01 
4.31156143390000E+01 4.38402297924000E+01 4.45770233725000E+01 4.53261997489000E+01 
4.60879670310000E+01 4.68625368258000E+01 4.76501242964000E+01 4.84509482223000E+01 
4.92652310596000E+01 5.00931990033000E+01 5.09350820499000E+01 5.17911140611000E+01 
5.26615328290000E+01 5.35465801424000E+01 5.44465018533000E+01 5.53615479458000E+01 
5.62919726053000E+01 5.72380342890000E+01 5.81999957979000E+01 5.91781243497000E+01 
6.01726916532000E+01 6.11839739833000E+01 6.22122522584000E+01 6.32578121180000E+01 
6.43209440019000E+01 6.54019432316000E+01 6.65011100914000E+01 6.76187499127000E+01 
6.87551731580000E+01 6.99106955078000E+01 7.10856379481000E+01 7.22803268591000E+01 
7.34950941067000E+01 7.47302771341000E+01 7.59862190554000E+01 7.72632687517000E+01 
7.85617809670000E+01 7.98821164077000E+01 8.12246418420000E+01 8.25897302023000E+01 
8.39777606886000E+01 8.53891188738000E+01 8.68241968110000E+01 8.82833931421000E+01 
8.97671132088000E+01 9.12757691652000E+01 9.28097800921000E+01 9.43695721134000E+01 
9.59555785147000E+01 9.75682398636000E+01 9.92080041320000E+01 1.00875326820000E+02 
1.02570671085000E+02 1.04294507865000E+02 1.06047316016000E+02 1.07829582439000E+02 
1.09641802221000E+02 1.11484478767000E+02 1.13358123944000E+02 1.15263258221000E+02 
1.17200410814000E+02 1.19170119834000E+02 1.21172932434000E+02 1.23209404964000E+02 
1.25280103125000E+02 1.27385602123000E+02 1.29526486832000E+02 1.31703351958000E+02 
1.33916802198000E+02 1.36167452414000E+02 1.38455927801000E+02 1.40782864062000E+02 
1.43148907582000E+02 1.45554715611000E+02 1.48000956445000E+02 1.50488309610000E+02 
1.53017466055000E+02 
</PP_R>
    <PP_RAB>
1.92380161509000E-07 1.95613366063000E-07 1.98900908922000E-07 2.02243703311000E-07 
2.05642677807000E-07 2.09098776592000E-07 2.12612959715000E-07 2.16186203360000E-07 
2.19819500119000E-07 2.23513859263000E-07 2.27270307028000E-07 2.31089886895000E-07 
2.34973659883000E-07 2.38922704843000E-07 2.42938118757000E-07 2.47021017045000E-07 
2.51172533869000E-07 2.55393822458000E-07 2.59686055416000E-07 2.64050425060000E-07 
2.68488143743000E-07 2.73000444191000E-07 2.77588579852000E-07 2.82253825236000E-07 
2.86997476276000E-07 2.91820850682000E-07 2.96725288312000E-07 3.01712151542000E-07 
3.06782825642000E-07 3.11938719167000E-07 3.17181264341000E-07 3.22511917462000E-07 
3.27932159300000E-07 3.33443495514000E-07 3.39047457065000E-07 3.44745600645000E-07 
3.50539509108000E-07 3.56430791912000E-07 3.62421085561000E-07 3.68512054064000E-07 
3.74705389395000E-07 3.81002811967000E-07 3.87406071103000E-07 3.93916945528000E-07 
4.00537243859000E-07 4.07268805111000E-07 4.14113499206000E-07 4.21073227491000E-07 
4.28149923269000E-07 4.35345552334000E-07 4.42662113519000E-07 4.50101639248000E-07 
4.57666196105000E-07 4.65357885403000E-07 4.73178843773000E-07 4.81131243754000E-07 
4.89217294395000E-07 4.97439241876000E-07 5.05799370122000E-07 5.14300001445000E-07 
5.22943497187000E-07 5.31732258374000E-07 5.40668726385000E-07 5.49755383630000E-07 
5.58994754239000E-07 5.68389404763000E-07 5.77941944888000E-07 5.87655028158000E-07 
5.97531352714000E-07 6.07573662044000E-07 6.17784745742000E-07 6.28167440287000E-07 
6.38724629826000E-07 6.49459246981000E-07 6.60374273658000E-07 6.71472741880000E-07 
6.82757734625000E-07 6.94232386687000E-07 7.05899885542000E-07 7.17763472239000E-07 
7.29826442292000E-07 7.42092146606000E-07 7.54563992399000E-07 7.67245444153000E-07 
7.80140024574000E-07 7.93251315575000E-07 8.06582959264000E-07 8.20138658961000E-07 
8.33922180226000E-07 8.47937351904000E-07 8.62188067187000E-07 8.76678284699000E-07 
8.91412029594000E-07 9.06393394673000E-07 9.21626541524000E-07 9.37115701674000E-07 
9.52865177766000E-07 9.68879344757000E-07 9.85162651130000E-07 1.00171962013000E-06 
1.01855485102000E-06 1.03567302036000E-06 1.05307888331000E-06 1.07077727495000E-06 
1.08877311160000E-06 1.10707139223000E-06 1.12567719981000E-06 1.14459570274000E-06 
1.16383215628000E-06 1.18339190401000E-06 1.20328037933000E-06 1.22350310693000E-06 
1.24406570437000E-06 1.26497388362000E-06 1.28623345264000E-06 1.30785031700000E-06 
1.32983048152000E-06 1.35218005195000E-06 1.37490523665000E-06 1.39801234830000E-06 
1.42150780571000E-06 1.44539813554000E-06 1.46968997415000E-06 1.49439006942000E-06 
1.51950528265000E-06 1.54504259046000E-06 1.57100908669000E-06 1.59741198444000E-06 
1.62425861802000E-06 1.65155644498000E-06 1.67931304825000E-06 1.70753613816000E-06 
1.73623355465000E-06 1.76541326939000E-06 1.79508338807000E-06 1.82525215256000E-06 
1.85592794327000E-06 1.88711928146000E-06 1.91883483158000E-06 1.95108340372000E-06 
1.98387395601000E-06 2.01721559716000E-06 2.05111758895000E-06 2.08558934881000E-06 
2.12064045245000E-06 2.15628063653000E-06 2.19251980131000E-06 2.22936801347000E-06 
2.26683550886000E-06 2.30493269535000E-06 2.34367015575000E-06 2.38305865070000E-06 
2.42310912171000E-06 2.46383269418000E-06 2.50524068045000E-06 2.54734458302000E-06 
2.59015609769000E-06 2.63368711682000E-06 2.67794973264000E-06 2.72295624061000E-06 
2.76871914281000E-06 2.81525115148000E-06 2.86256519245000E-06 2.91067440882000E-06 
2.95959216459000E-06 3.00933204831000E-06 3.05990787696000E-06 3.11133369969000E-06 
3.16362380179000E-06 3.21679270862000E-06 3.27085518966000E-06 3.32582626263000E-06 
3.38172119760000E-06 3.43855552133000E-06 3.49634502147000E-06 3.55510575104000E-06 
3.61485403285000E-06 3.67560646403000E-06 3.73737992063000E-06 3.80019156236000E-06 
3.86405883729000E-06 3.92899948674000E-06 3.99503155020000E-06 4.06217337033000E-06 
4.13044359808000E-06 4.19986119783000E-06 4.27044545270000E-06 4.34221596988000E-06 
4.41519268607000E-06 4.48939587308000E-06 4.56484614335000E-06 4.64156445580000E-06 
4.71957212155000E-06 4.79889080991000E-06 4.87954255435000E-06 4.96154975865000E-06 
5.04493520312000E-06 5.12972205092000E-06 5.21593385450000E-06 5.30359456213000E-06 
5.39272852458000E-06 5.48336050185000E-06 5.57551567007000E-06 5.66921962849000E-06 
5.76449840660000E-06 5.86137847133000E-06 5.95988673444000E-06 6.06005055997000E-06 
6.16189777183000E-06 6.26545666159000E-06 6.37075599627000E-06 6.47782502635000E-06 
6.58669349393000E-06 6.69739164094000E-06 6.80995021759000E-06 6.92440049086000E-06 
7.04077425323000E-06 7.15910383151000E-06 7.27942209577000E-06 7.40176246853000E-06 
7.52615893402000E-06 7.65264604760000E-06 7.78125894541000E-06 7.91203335407000E-06 
8.04500560064000E-06 8.18021262273000E-06 8.31769197869000E-06 8.45748185814000E-06 
8.59962109248000E-06 8.74414916576000E-06 8.89110622559000E-06 9.04053309431000E-06 
9.19247128036000E-06 9.34696298977000E-06 9.50405113788000E-06 9.66377936131000E-06 
9.82619203004000E-06 9.99133425973000E-06 1.01592519243000E-05 1.03299916686000E-05 
1.05036009215000E-05 1.06801279088000E-05 1.08596216670000E-05 1.10421320566000E-05 
1.12277097761000E-05 1.14164063761000E-05 1.16082742735000E-05 1.18033667662000E-05 
1.20017380477000E-05 1.22034432225000E-05 1.24085383212000E-05 1.26170803158000E-05 
1.28291271361000E-05 1.30447376853000E-05 1.32639718567000E-05 1.34868905499000E-05 
1.37135556884000E-05 1.39440302361000E-05 1.41783782151000E-05 1.44166647238000E-05 
1.46589559542000E-05 1.49053192111000E-05 1.51558229302000E-05 1.54105366977000E-05 
1.56695312688000E-05 1.59328785883000E-05 1.62006518099000E-05 1.64729253167000E-05 
1.67497747420000E-05 1.70312769902000E-05 1.73175102582000E-05 1.76085540571000E-05 
1.79044892342000E-05 1.82053979956000E-05 1.85113639292000E-05 1.88224720273000E-05 
1.91388087108000E-05 1.94604618532000E-05 1.97875208046000E-05 2.01200764168000E-05 
2.04582210684000E-05 2.08020486908000E-05 2.11516547938000E-05 2.15071364925000E-05 
2.18685925341000E-05 2.22361233253000E-05 2.26098309604000E-05 2.29898192495000E-05 
2.33761937473000E-05 2.37690617826000E-05 2.41685324879000E-05 2.45747168299000E-05 
2.49877276400000E-05 2.54076796464000E-05 2.58346895048000E-05 2.62688758321000E-05 
2.67103592382000E-05 2.71592623603000E-05 2.76157098966000E-05 2.80798286409000E-05 
2.85517475183000E-05 2.90315976202000E-05 2.95195122414000E-05 3.00156269170000E-05 
3.05200794597000E-05 3.10330099985000E-05 3.15545610174000E-05 3.20848773951000E-05 
3.26241064450000E-05 3.31723979565000E-05 3.37299042362000E-05 3.42967801507000E-05 
3.48731831691000E-05 3.54592734071000E-05 3.60552136712000E-05 3.66611695043000E-05 
3.72773092313000E-05 3.79038040062000E-05 3.85408278592000E-05 3.91885577456000E-05 
3.98471735944000E-05 4.05168583588000E-05 4.11977980666000E-05 4.18901818721000E-05 
4.25942021086000E-05 4.33100543418000E-05 4.40379374241000E-05 4.47780535499000E-05 
4.55306083120000E-05 4.62958107579000E-05 4.70738734490000E-05 4.78650125188000E-05 
4.86694477331000E-05 4.94874025514000E-05 5.03191041887000E-05 5.11647836784000E-05 
5.20246759370000E-05 5.28990198291000E-05 5.37880582334000E-05 5.46920381109000E-05 
5.56112105729000E-05 5.65458309510000E-05 5.74961588679000E-05 5.84624583098000E-05 
5.94449976994000E-05 6.04440499705000E-05 6.14598926442000E-05 6.24928079055000E-05 
6.35430826819000E-05 6.46110087232000E-05 6.56968826824000E-05 6.68010061981000E-05 
6.79236859784000E-05 6.90652338860000E-05 7.02259670249000E-05 7.14062078284000E-05 
7.26062841488000E-05 7.38265293483000E-05 7.50672823918000E-05 7.63288879409000E-05 
7.76116964497000E-05 7.89160642620000E-05 8.02423537108000E-05 8.15909332182000E-05 
8.29621773984000E-05 8.43564671614000E-05 8.57741898187000E-05 8.72157391914000E-05 