<UPF version="2.0.1">
  <PP_INFO>
Generated using Vanderbilt code, version   7  3  6
Author: kfg        Generation date:   13    5 2013
Automatically converted from original USPP format to UPF.v1.

Futher converted to UPF.v2 format.
Convert Q_IJ to Q_IJL use the same routine as 'upflib/upf_to_internal.f90' of QE.
The conversion is done by using PseudoPotentialIO.jl package.
Converted by: JYU on 2024-04-30

1        The Pseudo was generated with a Scalar-Relativistic Calculation
2.30000000000E+00    Local Potential cutoff radius
nl pn  l   occ               Rcut            Rcut US             E pseu
5S  5  0  2.00      0.00000000000      1.80000000000     -2.47490428300
5P  5  1  6.00      0.00000000000      1.80000000000     -1.37714503900
5D  5  2  0.00      0.00000000000      2.30000000000     -0.14837719100
6S  6  0  2.00      0.00000000000      1.80000000000     -0.23739310400
6P  6  1  0.00      0.00000000000      1.80000000000     -0.09137585800
</PP_INFO>
  <PP_HEADER element="Ba" pseudo_type="US" relativistic="scalar" is_ultrasoft="T" is_paw="F" is_coulomb="F" has_so="F" has_wfc="F" has_gipaw="F" core_correction="T" functional="PBE" z_valence="10.0" total_psenergy="-70.1409144985" wfc_cutoff="0.0" rho_cutoff="0.0" l_max="3" mesh_size="907" number_of_wfc="5" number_of_proj="7"/>
  <PP_MESH>
    <PP_R>
0.00000000000000E+00 7.56621590713000E-07 1.52617657157000E-06 2.30888602082000E-06 
3.10497479575000E-06 3.91467159725000E-06 4.73820903555000E-06 5.57582369702000E-06 
6.42775621214000E-06 7.29425132463000E-06 8.17555796178000E-06 9.07192930593000E-06 
9.98362286722000E-06 1.09109005576000E-05 1.18540287659000E-05 1.28132784347000E-05 
1.37889251379000E-05 1.47812491598000E-05 1.57905355760000E-05 1.68170743349000E-05 
1.78611603413000E-05 1.89230935407000E-05 2.00031790062000E-05 2.11017270253000E-05 
2.22190531897000E-05 2.33554784855000E-05 2.45113293857000E-05 2.56869379439000E-05 
2.68826418897000E-05 2.80987847257000E-05 2.93357158263000E-05 3.05937905377000E-05 
3.18733702806000E-05 3.31748226533000E-05 3.44985215381000E-05 3.58448472079000E-05 
3.72141864361000E-05 3.86069326073000E-05 4.00234858305000E-05 4.14642530542000E-05 
4.29296481828000E-05 4.44200921960000E-05 4.59360132695000E-05 4.74778468982000E-05 
4.90460360209000E-05 5.06410311480000E-05 5.22632904909000E-05 5.39132800932000E-05 
5.55914739650000E-05 5.72983542190000E-05 5.90344112087000E-05 6.08001436698000E-05 
6.25960588630000E-05 6.44226727201000E-05 6.62805099918000E-05 6.81701043989000E-05 
7.00919987851000E-05 7.20467452737000E-05 7.40349054255000E-05 7.60570504003000E-05 
7.81137611214000E-05 8.02056284419000E-05 8.23332533147000E-05 8.44972469654000E-05 
8.66982310675000E-05 8.89368379211000E-05 9.12137106346000E-05 9.35295033096000E-05 
9.58848812283000E-05 9.82805210454000E-05 1.00717110982000E-04 1.03195351023000E-04 
1.05715953118000E-04 1.08279641389000E-04 1.10887152332000E-04 1.13539235037000E-04 
1.16236651393000E-04 1.18980176318000E-04 1.21770597973000E-04 1.24608717991000E-04 
1.27495351710000E-04 1.30431328404000E-04 1.33417491522000E-04 1.36454698931000E-04 
1.39543823162000E-04 1.42685751661000E-04 1.45881387042000E-04 1.49131647350000E-04 
1.52437466322000E-04 1.55799793656000E-04 1.59219595283000E-04 1.62697853646000E-04 
1.66235567981000E-04 1.69833754606000E-04 1.73493447209000E-04 1.77215697150000E-04 
1.81001573759000E-04 1.84852164645000E-04 1.88768576008000E-04 1.92751932958000E-04 
1.96803379835000E-04 2.00924080543000E-04 2.05115218878000E-04 2.09377998874000E-04 
2.13713645145000E-04 2.18123403237000E-04 2.22608539990000E-04 2.27170343897000E-04 
2.31810125474000E-04 2.36529217643000E-04 2.41328976106000E-04 2.46210779741000E-04 
2.51176030996000E-04 2.56226156292000E-04 2.61362606432000E-04 2.66586857018000E-04 
2.71900408878000E-04 2.77304788490000E-04 2.82801548430000E-04 2.88392267809000E-04 
2.94078552734000E-04 2.99862036764000E-04 3.05744381381000E-04 3.11727276471000E-04 
3.17812440802000E-04 3.24001622525000E-04 3.30296599671000E-04 3.36699180667000E-04 
3.43211204849000E-04 3.49834542997000E-04 3.56571097866000E-04 3.63422804740000E-04 
3.70391631979000E-04 3.77479581595000E-04 3.84688689818000E-04 3.92021027684000E-04 
3.99478701633000E-04 4.07063854111000E-04 4.14778664183000E-04 4.22625348168000E-04 
4.30606160264000E-04 4.38723393204000E-04 4.46979378913000E-04 4.55376489176000E-04 
4.63917136320000E-04 4.72603773907000E-04 4.81438897440000E-04 4.90425045080000E-04 
4.99564798373000E-04 5.08860782992000E-04 5.18315669495000E-04 5.27932174087000E-04 
5.37713059405000E-04 5.47661135306000E-04 5.57779259682000E-04 5.68070339272000E-04 
5.78537330506000E-04 5.89183240348000E-04 6.00011127160000E-04 6.11024101586000E-04 
6.22225327440000E-04 6.33618022617000E-04 6.45205460018000E-04 6.56990968490000E-04 
6.68977933782000E-04 6.81169799516000E-04 6.93570068180000E-04 7.06182302130000E-04 
7.19010124618000E-04 7.32057220829000E-04 7.45327338941000E-04 7.58824291202000E-04 
7.72551955025000E-04 7.86514274103000E-04 8.00715259539000E-04 8.15158991003000E-04 
8.29849617898000E-04 8.44791360557000E-04 8.59988511454000E-04 8.75445436437000E-04 
8.91166575980000E-04 9.07156446463000E-04 9.23419641466000E-04 9.39960833090000E-04 
9.56784773301000E-04 9.73896295289000E-04 9.91300314865000E-04 1.00900183187000E-03 
1.02700593160000E-03 1.04531778628000E-03 1.06394265657000E-03 1.08288589302000E-03 
1.10215293767000E-03 1.12174932555000E-03 1.14168068633000E-03 1.16195274591000E-03 
1.18257132805000E-03 1.20354235608000E-03 1.22487185457000E-03 1.24656595107000E-03 
1.26863087787000E-03 1.29107297380000E-03 1.31389868604000E-03 1.33711457197000E-03 
1.36072730107000E-03 1.38474365683000E-03 1.40917053866000E-03 1.43401496395000E-03 
1.45928407002000E-03 1.48498511619000E-03 1.51112548588000E-03 1.53771268871000E-03 
1.56475436266000E-03 1.59225827628000E-03 1.62023233093000E-03 1.64868456300000E-03 
1.67762314627000E-03 1.70705639423000E-03 1.73699276249000E-03 1.76744085119000E-03 
1.79840940746000E-03 1.82990732799000E-03 1.86194366151000E-03 1.89452761144000E-03 
1.92766853852000E-03 1.96137596350000E-03 1.99565956986000E-03 2.03052920663000E-03 
2.06599489117000E-03 2.10206681210000E-03 2.13875533217000E-03 2.17607099129000E-03 
2.21402450952000E-03 2.25262679018000E-03 2.29188892295000E-03 2.33182218709000E-03 
2.37243805464000E-03 2.41374819377000E-03 2.45576447207000E-03 2.49849896002000E-03 
2.54196393439000E-03 2.58617188184000E-03 2.63113550245000E-03 2.67686771341000E-03 
2.72338165269000E-03 2.77069068284000E-03 2.81880839484000E-03 2.86774861198000E-03 
2.91752539382000E-03 2.96815304028000E-03 3.01964609570000E-03 3.07201935304000E-03 
3.12528785812000E-03 3.17946691395000E-03 3.23457208513000E-03 3.29061920230000E-03 
3.34762436672000E-03 3.40560395487000E-03 3.46457462316000E-03 3.52455331273000E-03 
3.58555725429000E-03 3.64760397309000E-03 3.71071129395000E-03 3.77489734639000E-03 
3.84018056982000E-03 3.90657971885000E-03 3.97411386866000E-03 4.04280242050000E-03 
4.11266510728000E-03 4.18372199919000E-03 4.25599350950000E-03 4.32950040041000E-03 
4.40426378904000E-03 4.48030515345000E-03 4.55764633887000E-03 4.63630956391000E-03 
4.71631742700000E-03 4.79769291285000E-03 4.88045939906000E-03 4.96464066284000E-03 
5.05026088784000E-03 5.13734467110000E-03 5.22591703009000E-03 5.31600340995000E-03 
5.40762969075000E-03 5.50082219494000E-03 5.59560769493000E-03 5.69201342076000E-03 
5.79006706793000E-03 5.88979680535000E-03 5.99123128345000E-03 6.09439964239000E-03 
6.19933152044000E-03 6.30605706250000E-03 6.41460692875000E-03 6.52501230348000E-03 
6.63730490400000E-03 6.75151698981000E-03 6.86768137184000E-03 6.98583142185000E-03 
7.10600108208000E-03 7.22822487493000E-03 7.35253791295000E-03 7.47897590886000E-03 
7.60757518585000E-03 7.73837268801000E-03 7.87140599093000E-03 8.00671331249000E-03 
8.14433352388000E-03 8.28430616072000E-03 8.42667143444000E-03 8.57147024382000E-03 
8.71874418677000E-03 8.86853557224000E-03 9.02088743239000E-03 9.17584353496000E-03 
9.33344839585000E-03 9.49374729188000E-03 9.65678627383000E-03 9.82261217963000E-03 
9.99127264786000E-03 1.01628161314000E-02 1.03372919114000E-02 1.05147501114000E-02 
1.06952417116000E-02 1.08788185638000E-02 1.10655334061000E-02 1.12554398781000E-02 
1.14485925361000E-02 1.16450468693000E-02 1.18448593151000E-02 1.20480872759000E-02 
1.22547891350000E-02 1.24650242739000E-02 1.26788530891000E-02 1.28963370095000E-02 
1.31175385139000E-02 1.33425211494000E-02 1.35713495490000E-02 1.38040894508000E-02 
1.40408077164000E-02 1.42815723503000E-02 1.45264525197000E-02 1.47755185738000E-02 
1.50288420645000E-02 1.52864957667000E-02 1.55485536994000E-02 1.58150911467000E-02 
1.60861846797000E-02 1.63619121783000E-02 1.66423528537000E-02 1.69275872710000E-02 
1.72176973726000E-02 1.75127665015000E-02 1.78128794254000E-02 1.81181223609000E-02 
1.84285829983000E-02 1.87443505271000E-02 1.90655156611000E-02 1.93921706648000E-02 
1.97244093799000E-02 2.00623272522000E-02 2.04060213589000E-02 2.07555904367000E-02 
2.11111349101000E-02 2.14727569200000E-02 2.18405603534000E-02 2.22146508733000E-02 
2.25951359485000E-02 2.29821248850000E-02 2.33757288574000E-02 2.37760609403000E-02 
2.41832361415000E-02 2.45973714344000E-02 2.50185857923000E-02 2.54470002217000E-02 
2.58827377979000E-02 2.63259236999000E-02 2.67766852463000E-02 2.72351519322000E-02 
2.77014554664000E-02 2.81757298086000E-02 2.86581112089000E-02 2.91487382459000E-02 
2.96477518675000E-02 3.01552954304000E-02 3.06715147423000E-02 3.11965581028000E-02 
3.17305763468000E-02 3.22737228874000E-02 3.28261537601000E-02 3.33880276676000E-02 
3.39595060254000E-02 3.45407530082000E-02 3.51319355969000E-02 3.57332236269000E-02 
3.63447898366000E-02 3.69668099172000E-02 3.75994625629000E-02 3.82429295227000E-02 
3.88973956521000E-02 3.95630489667000E-02 4.02400806956000E-02 4.09286853371000E-02 
4.16290607139000E-02 4.23414080303000E-02 4.30659319299000E-02 4.38028405545000E-02 
4.45523456035000E-02 4.53146623953000E-02 4.60900099288000E-02 4.68786109463000E-02 
4.76806919976000E-02 4.84964835050000E-02 4.93262198298000E-02 5.01701393390000E-02 
5.10284844745000E-02 5.19015018221000E-02 5.27894421829000E-02 5.36925606450000E-02 
5.46111166567000E-02 5.55453741016000E-02 5.64956013735000E-02 5.74620714546000E-02 
5.84450619928000E-02 5.94448553825000E-02 6.04617388448000E-02 6.14960045107000E-02 
6.25479495048000E-02 6.36178760304000E-02 6.47060914567000E-02 6.58129084071000E-02 
6.69386448485000E-02 6.80836241833000E-02 6.92481753419000E-02 7.04326328772000E-02 
7.16373370611000E-02 7.28626339817000E-02 7.41088756432000E-02 7.53764200665000E-02 
7.66656313928000E-02 7.79768799874000E-02 7.93105425468000E-02 8.06670022064000E-02 
8.20466486507000E-02 8.34498782256000E-02 8.48770940517000E-02 8.63287061404000E-02 
8.78051315120000E-02 8.93067943148000E-02 9.08341259474000E-02 9.23875651827000E-02 
9.39675582938000E-02 9.55745591820000E-02 9.72090295076000E-02 9.88714388224000E-02 
1.00562264704000E-01 1.02281992895000E-01 1.04031117439000E-01 1.05810140826000E-01 
1.07619574135000E-01 1.09459937181000E-01 1.11331758665000E-01 1.13235576325000E-01 
1.15171937091000E-01 1.17141397241000E-01 1.19144522564000E-01 1.21181888520000E-01 
1.23254080402000E-01 1.25361693513000E-01 1.27505333329000E-01 1.29685615676000E-01 
1.31903166906000E-01 1.34158624080000E-01 1.36452635147000E-01 1.38785859131000E-01 
1.41158966323000E-01 1.43572638471000E-01 1.46027568975000E-01 1.48524463090000E-01 
1.51064038126000E-01 1.53647023652000E-01 1.56274161711000E-01 1.58946207029000E-01 
1.61663927232000E-01 1.64428103069000E-01 1.67239528635000E-01 1.70099011597000E-01 
1.73007373429000E-01 1.75965449648000E-01 1.78974090051000E-01 1.82034158964000E-01 
1.85146535483000E-01 1.88312113736000E-01 1.91531803131000E-01 1.94806528623000E-01 
1.98137230977000E-01 2.01524867039000E-01 2.04970410012000E-01 2.08474849733000E-01 
2.12039192960000E-01 2.15664463661000E-01 2.19351703304000E-01 2.23101971164000E-01 
2.26916344618000E-01 2.30795919463000E-01 2.34741810226000E-01 2.38755150485000E-01 
2.42837093194000E-01 2.46988811017000E-01 2.51211496662000E-01 2.55506363225000E-01 
2.59874644538000E-01 2.64317595523000E-01 2.68836492555000E-01 2.73432633825000E-01 
2.78107339715000E-01 2.82861953179000E-01 2.87697840124000E-01 2.92616389808000E-01 
2.97619015234000E-01 3.02707153560000E-01 3.07882266509000E-01 3.13145840792000E-01 
3.18499388531000E-01 3.23944447698000E-01 3.29482582552000E-01 3.35115384092000E-01 
3.40844470513000E-01 3.46671487670000E-01 3.52598109554000E-01 3.58626038768000E-01 
3.64757007019000E-01 3.70992775616000E-01 3.77335135974000E-01 3.83785910131000E-01 
3.90346951269000E-01 3.97020144250000E-01 4.03807406150000E-01 4.10710686821000E-01 
4.17731969440000E-01 4.24873271087000E-01 4.32136643319000E-01 4.39524172762000E-01 
4.47037981712000E-01 4.54680228738000E-01 4.62453109312000E-01 4.70358856432000E-01 
4.78399741265000E-01 4.86578073802000E-01 4.94896203520000E-01 5.03356520057000E-01 
5.11961453898000E-01 5.20713477074000E-01 5.29615103871000E-01 5.38668891555000E-01 
5.47877441104000E-01 5.57243397956000E-01 5.66769452770000E-01 5.76458342195000E-01 
5.86312849664000E-01 5.96335806184000E-01 6.06530091158000E-01 6.16898633206000E-01 
6.27444411010000E-01 6.38170454168000E-01 6.49079844065000E-01 6.60175714756000E-01 
6.71461253871000E-01 6.82939703527000E-01 6.94614361261000E-01 7.06488580975000E-01 
7.18565773903000E-01 7.30849409589000E-01 7.43343016884000E-01 7.56050184960000E-01 
7.68974564340000E-01 7.82119867947000E-01 7.95489872174000E-01 8.09088417964000E-01 
8.22919411916000E-01 8.36986827407000E-01 8.51294705733000E-01 8.65847157271000E-01 
8.80648362658000E-01 8.95702573994000E-01 9.11014116064000E-01 9.26587387576000E-01 
9.42426862430000E-01 9.58537091001000E-01 9.74922701446000E-01 9.91588401033000E-01 
1.00853897750000E+00 1.02577930041000E+00 1.04331432258000E+00 1.06114908148000E+00 
1.07928870070000E+00 1.09773839139000E+00 1.11650345379000E+00 1.13558927875000E+00 
1.15500134924000E+00 1.17474524200000E+00 1.19482662904000E+00 1.21525127937000E+00 
1.23602506059000E+00 1.25715394061000E+00 1.27864398934000E+00 1.30050138047000E+00 
1.32273239319000E+00 1.34534341405000E+00 1.36834093876000E+00 1.39173157405000E+00 
1.41552203961000E+00 1.43971916998000E+00 1.46432991652000E+00 1.48936134943000E+00 
1.51482065974000E+00 1.54071516144000E+00 1.56705229350000E+00 1.59383962208000E+00 
1.62108484266000E+00 1.64879578226000E+00 1.67698040170000E+00 1.70564679787000E+00 
1.73480320608000E+00 1.76445800239000E+00 1.79461970606000E+00 1.82529698196000E+00 
1.85649864308000E+00 1.88823365305000E+00 1.92051112873000E+00 1.95334034280000E+00 
1.98673072648000E+00 2.02069187216000E+00 2.05523353623000E+00 2.09036564184000E+00 
2.12609828177000E+00 2.16244172131000E+00 2.19940640122000E+00 2.23700294075000E+00 
2.27524214065000E+00 2.31413498631000E+00 2.35369265088000E+00 2.39392649853000E+00 
2.43484808764000E+00 2.47646917422000E+00 2.51880171518000E+00 2.56185787185000E+00 
2.60565001342000E+00 2.65019072054000E+00 2.69549278889000E+00 2.74156923287000E+00 
2.78843328936000E+00 2.83609842149000E+00 2.88457832253000E+00 2.93388691981000E+00 
2.98403837876000E+00 3.03504710690000E+00 3.08692775806000E+00 3.13969523655000E+00 
3.19336470144000E+00 3.24795157093000E+00 3.30347152677000E+00 3.35994051877000E+00 
3.41737476938000E+00 3.47579077835000E+00 3.53520532747000E+00 3.59563548538000E+00 
3.65709861251000E+00 3.71961236601000E+00 3.78319470489000E+00 3.84786389511000E+00 
3.91363851489000E+00 3.98053746000000E+00 4.04857994921000E+00 4.11778552981000E+00 
4.18817408322000E+00 4.25976583073000E+00 4.33258133924000E+00 4.40664152724000E+00 
4.48196767080000E+00 4.55858140966000E+00 4.63650475346000E+00 4.71576008808000E+00 
4.79637018203000E+00 4.87835819303000E+00 4.96174767466000E+00 5.04656258310000E+00 
5.13282728403000E+00 5.22056655962000E+00 5.30980561569000E+00 5.40057008887000E+00 
5.49288605406000E+00 5.58678003183000E+00 5.68227899610000E+00 5.77941038190000E+00 
5.87820209318000E+00 5.97868251088000E+00 6.08088050110000E+00 6.18482542333000E+00 
6.29054713893000E+00 6.39807601972000E+00 6.50744295666000E+00 6.61867936875000E+00 
6.73181721206000E+00 6.84688898891000E+00 6.96392775718000E+00 7.08296713986000E+00 
7.20404133465000E+00 7.32718512383000E+00 7.45243388423000E+00 7.57982359738000E+00 
7.70939085990000E+00 7.84117289394000E+00 7.97520755793000E+00 8.11153335745000E+00 
8.25018945625000E+00 8.39121568755000E+00 8.53465256546000E+00 8.68054129661000E+00 
8.82892379201000E+00 8.97984267909000E+00 9.13334131392000E+00 9.28946379369000E+00 
9.44825496937000E+00 9.60976045858000E+00 9.77402665872000E+00 9.94110076031000E+00 
1.01110307605000E+01 1.02838654769000E+01 1.04596545615000E+01 1.06384485152000E+01 
1.08202987021000E+01 1.10052573640000E+01 1.11933776362000E+01 1.13847135619000E+01 
1.15793201082000E+01 1.17772531818000E+01 1.19785696451000E+01 1.21833273323000E+01 
1.23915850665000E+01 1.26034026760000E+01 1.28188410118000E+01 1.30379619654000E+01 
1.32608284859000E+01 1.34875045985000E+01 1.37180554229000E+01 1.39525471918000E+01 
1.41910472703000E+01 1.44336241748000E+01 1.46803475930000E+01 1.49312884036000E+01 
1.51865186972000E+01 1.54461117964000E+01 1.57101422774000E+01 1.59786859909000E+01 
1.62518200845000E+01 1.65296230242000E+01 1.68121746175000E+01 1.70995560359000E+01 
1.73918498386000E+01 1.76891399959000E+01 1.79915119135000E+01 1.82990524571000E+01 
1.86118499771000E+01 1.89299943341000E+01 1.92535769249000E+01 1.95826907085000E+01 
1.99174302329000E+01 2.02578916623000E+01 2.06041728047000E+01 2.09563731400000E+01 
2.13145938484000E+01 2.16789378400000E+01 2.20495097835000E+01 2.24264161373000E+01 
2.28097651792000E+01 2.31996670379000E+01 2.35962337248000E+01 2.39995791657000E+01 
2.44098192341000E+01 2.48270717838000E+01 2.52514566836000E+01 2.56830958509000E+01 
2.61221132874000E+01 2.65686351143000E+01 2.70227896087000E+01 2.74847072403000E+01 
2.79545207092000E+01 2.84323649836000E+01 2.89183773390000E+01 2.94126973974000E+01 
2.99154671672000E+01 3.04268310847000E+01 3.09469360546000E+01 3.14759314931000E+01 
3.20139693703000E+01 3.25612042542000E+01 3.31177933547000E+01 3.36838965691000E+01 
3.42596765279000E+01 3.48452986415000E+01 3.54409311478000E+01 3.60467451605000E+01 
3.66629147183000E+01 3.72896168348000E+01 3.79270315493000E+01 3.85753419788000E+01 
3.92347343703000E+01 3.99053981544000E+01 4.05875260000000E+01 4.12813138691000E+01 
4.19869610735000E+01 4.27046703321000E+01 4.34346478289000E+01 4.41771032721000E+01 
4.49322499550000E+01 4.57003048166000E+01 4.64814885041000E+01 4.72760254365000E+01 
4.80841438689000E+01 4.89060759581000E+01 4.97420578292000E+01 5.05923296437000E+01 
5.14571356683000E+01 5.23367243449000E+01 5.32313483623000E+01 5.41412647288000E+01 
5.50667348457000E+01 5.60080245826000E+01 5.69654043539000E+01 5.79391491963000E+01 
5.89295388477000E+01 5.99368578281000E+01 6.09613955206000E+01 6.20034462551000E+01 
6.30633093926000E+01 6.41412894113000E+01 6.52376959939000E+01 6.63528441169000E+01 
6.74870541408000E+01 6.86406519021000E+01 6.98139688072000E+01 7.10073419273000E+01 
7.22211140953000E+01 7.34556340046000E+01 7.47112563089000E+01 7.59883417241000E+01 
7.72872571321000E+01 7.86083756862000E+01 7.99520769183000E+01 8.13187468476000E+01 
8.27087780921000E+01 8.41225699807000E+01 8.55605286685000E+01 8.70230672533000E+01 
8.85106058941000E+01 9.00235719318000E+01 9.15624000125000E+01 9.31275322116000E+01 
9.47194181613000E+01 9.63385151797000E+01 9.79852884020000E+01 9.96602109143000E+01 
1.01363763889000E+02 1.03096436725000E+02 1.04858727185000E+02 1.06651141540000E+02 
1.08474194718000E+02 1.10328410445000E+02 1.12214321402000E+02 1.14132469375000E+02 
1.16083405411000E+02 1.18067689976000E+02 1.20085893116000E+02 1.22138594622000E+02 
1.24226384195000E+02 1.26349861617000E+02 1.28509636923000E+02 1.30706330573000E+02 
1.32940573635000E+02 1.35213007964000E+02 1.37524286387000E+02 1.39875072889000E+02 
1.42266042805000E+02 1.44697883015000E+02 1.47171292139000E+02 1.49686980741000E+02 
1.52245671528000E+02 1.54848099563000E+02 1.57495012474000E+02 1.60187170666000E+02 
1.62925347546000E+02 1.65710329738000E+02 1.68542917314000E+02 1.71423924021000E+02 
1.74354177518000E+02 1.77334519608000E+02 1.80365806487000E+02 1.83448908984000E+02 
1.86584712816000E+02 1.89774118838000E+02 1.93018043305000E+02 1.96317418133000E+02 
1.99673191170000E+02 2.03086326463000E+02 2.06557804540000E+02 
</PP_R>
    <PP_RAB>
7.50227656376000E-07 7.63051751134000E-07 7.76095055894000E-07 7.89361317746000E-07 
8.02854347829000E-07 8.16578022431000E-07 8.30536284097000E-07 8.44733142766000E-07 
8.59172676921000E-07 8.73859034760000E-07 8.88796435389000E-07 9.03989170036000E-07 
9.19441603278000E-07 9.35158174301000E-07 9.51143398171000E-07 9.67401867134000E-07 
9.83938251934000E-07 1.00075730315000E-06 1.01786385258000E-06 1.03526281460000E-06 
1.05295918758000E-06 1.07095805537000E-06 1.08926458868000E-06 1.10788404664000E-06 
1.12682177823000E-06 1.14608322393000E-06 1.16567391715000E-06 1.18559948593000E-06 
1.20586565451000E-06 1.22647824495000E-06 1.24744317886000E-06 1.26876647905000E-06 
1.29045427130000E-06 1.31251278609000E-06 1.33494836041000E-06 1.35776743956000E-06 
1.38097657902000E-06 1.40458244633000E-06 1.42859182300000E-06 1.45301160645000E-06 
1.47784881202000E-06 1.50311057495000E-06 1.52880415247000E-06 1.55493692584000E-06 
1.58151640249000E-06 1.60855021821000E-06 1.63604613927000E-06 1.66401206474000E-06 
1.69245602866000E-06 1.72138620246000E-06 1.75081089720000E-06 1.78073856603000E-06 
1.81117780660000E-06 1.84213736350000E-06 1.87362613081000E-06 1.90565315466000E-06 
1.93822763579000E-06 1.97135893220000E-06 2.00505656189000E-06 2.03933020553000E-06 
2.07418970928000E-06 2.10964508759000E-06 2.14570652612000E-06 2.18238438460000E-06 
2.21968919989000E-06 2.25763168894000E-06 2.29622275188000E-06 2.33547347518000E-06 
2.37539513482000E-06 2.41599919952000E-06 2.45729733403000E-06 2.49930140252000E-06 
2.54202347194000E-06 2.58547581551000E-06 2.62967091625000E-06 2.67462147056000E-06 
2.72034039186000E-06 2.76684081431000E-06 2.81413609659000E-06 2.86223982572000E-06 
2.91116582096000E-06 2.96092813781000E-06 3.01154107201000E-06 3.06301916369000E-06 
3.11537720150000E-06 3.16863022690000E-06 3.22279353844000E-06 3.27788269621000E-06 
3.33391352624000E-06 3.39090212512000E-06 3.44886486456000E-06 3.50781839614000E-06 
3.56777965606000E-06 3.62876587004000E-06 3.69079455823000E-06 3.75388354028000E-06 
3.81805094043000E-06 3.88331519273000E-06 3.94969504635000E-06 4.01720957092000E-06 
4.08587816206000E-06 4.15572054693000E-06 4.22675678990000E-06 4.29900729831000E-06 
4.37249282832000E-06 4.44723449091000E-06 4.52325375791000E-06 4.60057246819000E-06 
4.67921283391000E-06 4.75919744693000E-06 4.84054928528000E-06 4.92329171978000E-06 
5.00744852072000E-06 5.09304386472000E-06 5.18010234166000E-06 5.26864896177000E-06 
5.35870916278000E-06 5.45030881723000E-06 5.54347423993000E-06 5.63823219552000E-06 
5.73460990610000E-06 5.83263505915000E-06 5.93233581538000E-06 6.03374081690000E-06 
6.13687919539000E-06 6.24178058052000E-06 6.34847510844000E-06 6.45699343040000E-06 
6.56736672162000E-06 6.67962669022000E-06 6.79380558631000E-06 6.90993621128000E-06 
7.02805192721000E-06 7.14818666647000E-06 7.27037494142000E-06 7.39465185441000E-06 
7.52105310779000E-06 7.64961501418000E-06 7.78037450694000E-06 7.91336915074000E-06 
8.04863715237000E-06 8.18621737170000E-06 8.32614933287000E-06 8.46847323563000E-06 
8.61322996688000E-06 8.76046111242000E-06 8.91020896892000E-06 9.06251655604000E-06 
9.21742762879000E-06 9.37498669014000E-06 9.53523900375000E-06 9.69823060701000E-06 
9.86400832425000E-06 1.00326197802000E-05 1.02041134137000E-05 1.03785384915000E-05 
1.05559451226000E-05 1.07363842724000E-05 1.09199077777000E-05 1.11065683612000E-05 
1.12964196469000E-05 1.14895161753000E-05 1.16859134194000E-05 1.18856678003000E-05 
1.20888367035000E-05 1.22954784956000E-05 1.25056525408000E-05 1.27194192179000E-05 
1.29368399380000E-05 1.31579771620000E-05 1.33828944181000E-05 1.36116563208000E-05 
1.38443285890000E-05 1.40809780649000E-05 1.43216727333000E-05 1.45664817412000E-05 
1.48154754174000E-05 1.50687252929000E-05 1.53263041217000E-05 1.55882859011000E-05 
1.58547458933000E-05 1.61257606473000E-05 1.64014080202000E-05 1.66817672003000E-05 
1.69669187293000E-05 1.72569445257000E-05 1.75519279083000E-05 1.78519536202000E-05 
1.81571078529000E-05 1.84674782714000E-05 1.87831540389000E-05 1.91042258432000E-05 
1.94307859219000E-05 1.97629280894000E-05 2.01007477636000E-05 2.04443419938000E-05 
2.07938094878000E-05 2.11492506408000E-05 2.15107675644000E-05 2.18784641151000E-05 
2.22524459253000E-05 2.26328204326000E-05 2.30196969112000E-05 2.34131865033000E-05 
2.38134022508000E-05 2.42204591280000E-05 2.46344740744000E-05 2.50555660285000E-05 
2.54838559619000E-05 2.59194669139000E-05 2.63625240272000E-05 2.68131545836000E-05 
2.72714880404000E-05 2.77376560680000E-05 2.82117925874000E-05 2.86940338089000E-05 
2.91845182711000E-05 2.96833868807000E-05 3.01907829528000E-05 3.07068522528000E-05 
3.12317430371000E-05 3.17656060969000E-05 3.23085948006000E-05 3.28608651384000E-05 
3.34225757669000E-05 3.39938880546000E-05 3.45749661286000E-05 3.51659769213000E-05 
3.57670902186000E-05 3.63784787089000E-05 3.70003180321000E-05 3.76327868307000E-05 
3.82760668007000E-05 3.89303427441000E-05 3.95958026216000E-05 4.02726376070000E-05 
4.09610421418000E-05 4.16612139915000E-05 4.23733543017000E-05 4.30976676566000E-05 
4.38343621375000E-05 4.45836493825000E-05 4.53457446471000E-05 4.61208668667000E-05 
4.69092387189000E-05 4.77110866876000E-05 4.85266411283000E-05 4.93561363340000E-05 
5.01998106025000E-05 5.10579063052000E-05 5.19306699564000E-05 5.28183522841000E-05 
5.37212083024000E-05 5.46394973843000E-05 5.55734833365000E-05 5.65234344750000E-05 
5.74896237025000E-05 5.84723285864000E-05 5.94718314388000E-05 6.04884193975000E-05 
6.15223845087000E-05 6.25740238104000E-05 6.36436394183000E-05 6.47315386122000E-05 
6.58380339246000E-05 6.69634432300000E-05 6.81080898370000E-05 6.92723025802000E-05 
7.04564159154000E-05 7.16607700156000E-05 7.28857108682000E-05 7.41315903752000E-05 
7.53987664536000E-05 7.66876031386000E-05 7.79984706880000E-05 7.93317456887000E-05 
8.06878111648000E-05 8.20670566877000E-05 8.34698784878000E-05 8.48966795689000E-05 
8.63478698232000E-05 8.78238661495000E-05 8.93250925732000E-05 9.08519803674000E-05 
9.24049681775000E-05 9.39845021469000E-05 9.55910360451000E-05 9.72250313981000E-05 
9.88869576213000E-05 1.00577292154000E-04 1.02296520596000E-04 1.04045136849000E-04 
1.05823643257000E-04 1.07632550750000E-04 1.09472378991000E-04 1.11343656529000E-04 
1.13246920945000E-04 1.15182719009000E-04 1.17151606840000E-04 1.19154150061000E-04 
1.21190923963000E-04 1.23262513672000E-04 1.25369514317000E-04 1.27512531196000E-04 
1.29692179959000E-04 1.31909086775000E-04 1.34163888520000E-04 1.36457232953000E-04 
1.38789778909000E-04 1.41162196482000E-04 1.43575167223000E-04 1.46029384331000E-04 
1.48525552856000E-04 1.51064389898000E-04 1.53646624816000E-04 1.56272999435000E-04 
1.58944268264000E-04 1.61661198705000E-04 1.64424571281000E-04 1.67235179853000E-04 
1.70093831857000E-04 1.73001348528000E-04 1.75958565138000E-04 1.78966331239000E-04 
1.82025510903000E-04 1.85136982975000E-04 1.88301641319000E-04 1.91520395081000E-04 
1.94794168947000E-04 1.98123903407000E-04 2.01510555032000E-04 2.04955096739000E-04 
2.08458518080000E-04 2.12021825519000E-04 2.15646042726000E-04 2.19332210867000E-04 
2.23081388909000E-04 2.26894653917000E-04 2.30773101369000E-04 2.34717845466000E-04 
2.38730019459000E-04 2.42810775967000E-04 2.46961287312000E-04 2.51182745856000E-04 
2.55476364343000E-04 2.59843376245000E-04 2.64285036121000E-04 2.68802619974000E-04 
2.73397425617000E-04 2.78070773051000E-04 2.82824004837000E-04 2.87658486487000E-04 
2.92575606853000E-04 2.97576778530000E-04 3.02663438257000E-04 3.07837047332000E-04 
3.13099092035000E-04 3.18451084048000E-04 3.23894560895000E-04 3.29431086382000E-04 
3.35062251045000E-04 3.40789672609000E-04 3.46614996452000E-04 3.52539896076000E-04 
3.58566073590000E-04 3.64695260198000E-04 3.70929216698000E-04 3.77269733983000E-04 
3.83718633563000E-04 3.90277768081000E-04 3.96949021849000E-04 4.03734311390000E-04 
4.10635585986000E-04 4.17654828240000E-04 4.24794054644000E-04 4.32055316160000E-04 
4.39440698807000E-04 4.46952324264000E-04 4.54592350475000E-04 4.62362972271000E-04 
4.70266422002000E-04 4.78304970176000E-04 4.86480926112000E-04 4.94796638604000E-04 
5.03254496596000E-04 5.11856929867000E-04 5.20606409729000E-04 5.29505449737000E-04 
5.38556606416000E-04 5.47762479986000E-04 5.57125715116000E-04 5.66649001684000E-04 
5.76335075545000E-04 5.86186719320000E-04 5.96206763197000E-04 6.06398085739000E-04 
6.16763614718000E-04 6.27306327947000E-04 6.38029254147000E-04 6.48935473804000E-04 
6.60028120065000E-04 6.71310379634000E-04 6.82785493684000E-04 6.94456758794000E-04 
7.06327527892000E-04 7.18401211221000E-04 7.30681277316000E-04 7.43171254003000E-04 
7.55874729411000E-04 7.68795353001000E-04 7.81936836619000E-04 7.95302955559000E-04 
8.08897549649000E-04 8.22724524352000E-04 8.36787851890000E-04 8.51091572386000E-04 
8.65639795021000E-04 8.80436699218000E-04 8.95486535842000E-04 9.10793628419000E-04 
9.26362374381000E-04 9.42197246327000E-04 9.58302793310000E-04 9.74683642141000E-04 
9.91344498722000E-04 1.00829014939000E-03 1.02552546231000E-03 1.04305538885000E-03 
1.06088496503000E-03 1.07901931292000E-03 1.09746364218000E-03 1.11622325150000E-03 
1.13530353017000E-03 1.15470995958000E-03 1.17444811481000E-03 1.19452366625000E-03 
1.21494238123000E-03 1.23571012565000E-03 1.25683286568000E-03 1.27831666946000E-03 