<UPF version="2.0.1">
  <PP_INFO>
Generated using Vanderbilt code, version   7  3  6
Author: kfg        Generation date:   31    3   15
Automatically converted from original USPP format to UPF.v1.

Futher converted to UPF.v2 format.
Convert Q_IJ to Q_IJL use the same routine as 'upflib/upf_to_internal.f90' of QE.
The conversion is done by using PseudoPotentialIO.jl package.
Converted by: JYU on 2024-04-30

0        The Pseudo was generated with a Non-Relativistic Calculation
1.50000000000E+00    Local Potential cutoff radius
nl pn  l   occ               Rcut            Rcut US             E pseu
1S  1  0  2.00      0.00000000000      1.35000000000     -7.80519964400
2S  2  0  2.00      0.00000000000      1.35000000000     -0.41224049900
2P  2  1  0.00      0.00000000000      1.60000000000     -0.14842245900
</PP_INFO>
  <PP_HEADER element="Be" pseudo_type="US" relativistic="scalar" is_ultrasoft="T" is_paw="F" is_coulomb="F" has_so="F" has_wfc="F" has_gipaw="F" core_correction="F" functional="PBE" z_valence="4.0" total_psenergy="-27.9724593971" wfc_cutoff="0.0" rho_cutoff="0.0" l_max="2" mesh_size="769" number_of_wfc="3" number_of_proj="6"/>
  <PP_MESH>
    <PP_R>
0.00000000000000E+00 3.83134739660000E-06 7.72708568336000E-06 1.16882970349000E-05 
1.57160818131000E-05 1.98115588730000E-05 2.39758658735000E-05 2.82101595933000E-05 
3.25156162522000E-05 3.68934318383000E-05 4.13448224394000E-05 4.58710245817000E-05 
5.04732955726000E-05 5.51529138502000E-05 5.99111793388000E-05 6.47494138092000E-05 
6.96689612466000E-05 7.46711882235000E-05 7.97574842797000E-05 8.49292623079000E-05 
9.01879589463000E-05 9.55350349778000E-05 1.00971975736000E-04 1.06500291516000E-04 
1.12121517998000E-04 1.17837216670000E-04 1.23648975262000E-04 1.29558408188000E-04 
1.35567156997000E-04 1.41676890824000E-04 1.47889306856000E-04 1.54206130804000E-04 
1.60629117382000E-04 1.67160050795000E-04 1.73800745233000E-04 1.80553045375000E-04 
1.87418826905000E-04 1.94399997027000E-04 2.01498495001000E-04 2.08716292677000E-04 
2.16055395045000E-04 2.23517840792000E-04 2.31105702869000E-04 2.38821089062000E-04 
2.46666142584000E-04 2.54643042668000E-04 2.62754005171000E-04 2.71001283188000E-04 
2.79387167685000E-04 2.87913988128000E-04 2.96584113132000E-04 3.05399951121000E-04 
3.14363950996000E-04 3.23478602814000E-04 3.32746438483000E-04 3.42170032459000E-04 
3.51752002470000E-04 3.61495010234000E-04 3.71401762206000E-04 3.81475010324000E-04 
3.91717552778000E-04 4.02132234785000E-04 4.12721949378000E-04 4.23489638213000E-04 
4.34438292385000E-04 4.45570953256000E-04 4.56890713303000E-04 4.68400716978000E-04 
4.80104161578000E-04 4.92004298133000E-04 5.04104432316000E-04 5.16407925351000E-04 
5.28918194955000E-04 5.41638716284000E-04 5.54573022896000E-04 5.67724707739000E-04 
5.81097424142000E-04 5.94694886835000E-04 6.08520872979000E-04 6.22579223214000E-04 
6.36873842728000E-04 6.51408702339000E-04 6.66187839604000E-04 6.81215359932000E-04 
6.96495437732000E-04 7.12032317568000E-04 7.27830315339000E-04 7.43893819480000E-04 
7.60227292179000E-04 7.76835270617000E-04 7.93722368227000E-04 8.10893275979000E-04 
8.28352763680000E-04 8.46105681299000E-04 8.64156960318000E-04 8.82511615095000E-04 
9.01174744265000E-04 9.20151532149000E-04 9.39447250200000E-04 9.59067258464000E-04 
9.79017007069000E-04 9.99302037740000E-04 1.01992798534000E-03 1.04090057943000E-03 
1.06222564586000E-03 1.08390910841000E-03 1.10595699039000E-03 1.12837541636000E-03 
1.15117061380000E-03 1.17434891486000E-03 1.19791675811000E-03 1.22188069032000E-03 
1.24624736829000E-03 1.27102356070000E-03 1.29621614999000E-03 1.32183213426000E-03 
1.34787862922000E-03 1.37436287018000E-03 1.40129221404000E-03 1.42867414135000E-03 
1.45651625838000E-03 1.48482629923000E-03 1.51361212798000E-03 1.54288174087000E-03 
1.57264326856000E-03 1.60290497830000E-03 1.63367527634000E-03 1.66496271018000E-03 
1.69677597096000E-03 1.72912389592000E-03 1.76201547079000E-03 1.79545983233000E-03 
1.82946627087000E-03 1.86404423284000E-03 1.89920332347000E-03 1.93495330939000E-03 
1.97130412139000E-03 2.00826585714000E-03 2.04584878404000E-03 2.08406334202000E-03 
2.12292014649000E-03 2.16242999125000E-03 2.20260385151000E-03 2.24345288695000E-03 
2.28498844477000E-03 2.32722206290000E-03 2.37016547317000E-03 2.41383060457000E-03 
2.45822958661000E-03 2.50337475260000E-03 2.54927864317000E-03 2.59595400969000E-03 
2.64341381784000E-03 2.69167125121000E-03 2.74073971495000E-03 2.79063283949000E-03 
2.84136448438000E-03 2.89294874205000E-03 2.94539994179000E-03 2.99873265373000E-03 
3.05296169285000E-03 3.10810212311000E-03 3.16416926166000E-03 3.22117868307000E-03 
3.27914622365000E-03 3.33808798586000E-03 3.39802034281000E-03 3.45895994274000E-03 
3.52092371373000E-03 3.58392886833000E-03 3.64799290836000E-03 3.71313362982000E-03 
3.77936912777000E-03 3.84671780138000E-03 3.91519835905000E-03 3.98482982360000E-03 
4.05563153754000E-03 4.12762316848000E-03 4.20082471456000E-03 4.27525651001000E-03 
4.35093923079000E-03 4.42789390039000E-03 4.50614189560000E-03 4.58570495246000E-03 
4.66660517234000E-03 4.74886502804000E-03 4.83250737006000E-03 4.91755543291000E-03 
5.00403284161000E-03 5.09196361821000E-03 5.18137218848000E-03 5.27228338874000E-03 
5.36472247265000E-03 5.45871511836000E-03 5.55428743552000E-03 5.65146597261000E-03 
5.75027772431000E-03 5.85075013896000E-03 5.95291112620000E-03 6.05678906474000E-03 
6.16241281024000E-03 6.26981170330000E-03 6.37901557764000E-03 6.49005476838000E-03 
6.60296012043000E-03 6.71776299714000E-03 6.83449528893000E-03 6.95318942217000E-03 
7.07387836824000E-03 7.19659565260000E-03 7.32137536419000E-03 7.44825216484000E-03 
7.57726129892000E-03 7.70843860313000E-03 7.84182051645000E-03 7.97744409028000E-03 
8.11534699869000E-03 8.25556754895000E-03 8.39814469210000E-03 8.54311803382000E-03 
8.69052784542000E-03 8.84041507502000E-03 8.99282135892000E-03 9.14778903318000E-03 
9.30536114537000E-03 9.46558146654000E-03 9.62849450336000E-03 9.79414551051000E-03 
9.96258050320000E-03 1.01338462700000E-02 1.03079903859000E-02 1.04850612254000E-02 
1.06651079758000E-02 1.08481806515000E-02 1.10343301070000E-02 1.12236080518000E-02 
1.14160670642000E-02 1.16117606064000E-02 1.18107430389000E-02 1.20130696359000E-02 
1.22187966006000E-02 1.24279810806000E-02 1.26406811840000E-02 1.28569559957000E-02 
1.30768655933000E-02 1.33004710643000E-02 1.35278345227000E-02 1.37590191265000E-02 
1.39940890951000E-02 1.42331097273000E-02 1.44761474192000E-02 1.47232696829000E-02 
1.49745451649000E-02 1.52300436657000E-02 1.54898361588000E-02 1.57539948103000E-02 
1.60225929994000E-02 1.62957053384000E-02 1.65734076935000E-02 1.68557772063000E-02 
1.71428923143000E-02 1.74348327737000E-02 1.77316796809000E-02 1.80335154954000E-02 
1.83404240622000E-02 1.86524906358000E-02 1.89698019034000E-02 1.92924460089000E-02 
1.96205125779000E-02 1.99540927420000E-02 2.02932791646000E-02 2.06381660662000E-02 
2.09888492511000E-02 2.13454261335000E-02 2.17079957647000E-02 2.20766588609000E-02 
2.24515178310000E-02 2.28326768047000E-02 2.32202416621000E-02 2.36143200625000E-02 
2.40150214747000E-02 2.44224572072000E-02 2.48367404393000E-02 2.52579862522000E-02 
2.56863116615000E-02 2.61218356491000E-02 2.65646791967000E-02 2.70149653193000E-02 
2.74728190992000E-02 2.79383677210000E-02 2.84117405068000E-02 2.88930689520000E-02 
2.93824867621000E-02 2.98801298896000E-02 3.03861365719000E-02 3.09006473696000E-02 
3.14238052059000E-02 3.19557554056000E-02 3.24966457360000E-02 3.30466264481000E-02 
3.36058503178000E-02 3.41744726885000E-02 3.47526515147000E-02 3.53405474052000E-02 
3.59383236684000E-02 3.65461463569000E-02 3.71641843143000E-02 3.77926092218000E-02 
3.84315956459000E-02 3.90813210870000E-02 3.97419660285000E-02 4.04137139872000E-02 
4.10967515640000E-02 4.17912684960000E-02 4.24974577090000E-02 4.32155153712000E-02 
4.39456409478000E-02 4.46880372560000E-02 4.54429105218000E-02 4.62104704371000E-02 
4.69909302180000E-02 4.77845066638000E-02 4.85914202175000E-02 4.94118950270000E-02 
5.02461590073000E-02 5.10944439036000E-02 5.19569853561000E-02 5.28340229653000E-02 
5.37258003583000E-02 5.46325652568000E-02 5.55545695457000E-02 5.64920693434000E-02 
5.74453250724000E-02 5.84146015321000E-02 5.94001679722000E-02 6.04022981675000E-02 
6.14212704940000E-02 6.24573680061000E-02 6.35108785152000E-02 6.45820946701000E-02 
6.56713140375000E-02 6.67788391856000E-02 6.79049777671000E-02 6.90500426057000E-02 
7.02143517824000E-02 7.13982287237000E-02 7.26020022920000E-02 7.38260068766000E-02 
7.50705824867000E-02 7.63360748456000E-02 7.76228354873000E-02 7.89312218534000E-02 
8.02615973930000E-02 8.16143316635000E-02 8.29898004331000E-02 8.43883857853000E-02 
8.58104762250000E-02 8.72564667864000E-02 8.87267591429000E-02 9.02217617186000E-02 
9.17418898015000E-02 9.32875656591000E-02 9.48592186559000E-02 9.64572853722000E-02 
9.80822097258000E-02 9.97344430948000E-02 1.01414444444000E-01 1.03122680450000E-01 
1.04859625636000E-01 1.06625762496000E-01 1.08421581635000E-01 1.10247581905000E-01 
1.12104270538000E-01 1.13992163294000E-01 1.15911784599000E-01 1.17863667694000E-01 
1.19848354781000E-01 1.21866397175000E-01 1.23918355456000E-01 1.26004799627000E-01 
1.28126309267000E-01 1.30283473699000E-01 1.32476892149000E-01 1.34707173915000E-01 
1.36974938532000E-01 1.39280815951000E-01 1.41625446708000E-01 1.44009482104000E-01 
1.46433584386000E-01 1.48898426932000E-01 1.51404694437000E-01 1.53953083101000E-01 
1.56544300827000E-01 1.59179067414000E-01 1.61858114759000E-01 1.64582187059000E-01 
1.67352041018000E-01 1.70168446057000E-01 1.73032184530000E-01 1.75944051938000E-01 
1.78904857152000E-01 1.81915422636000E-01 1.84976584679000E-01 1.88089193622000E-01 
1.91254114100000E-01 1.94472225276000E-01 1.97744421093000E-01 2.01071610513000E-01 
2.04454717778000E-01 2.07894682662000E-01 2.11392460731000E-01 2.14949023615000E-01 
2.18565359269000E-01 2.22242472256000E-01 2.25981384018000E-01 2.29783133166000E-01 
2.33648775767000E-01 2.37579385634000E-01 2.41576054629000E-01 2.45639892964000E-01 
2.49772029509000E-01 2.53973612105000E-01 2.58245807887000E-01 2.62589803603000E-01 
2.67006805945000E-01 2.71498041889000E-01 2.76064759028000E-01 2.80708225923000E-01 
2.85429732458000E-01 2.90230590191000E-01 2.95112132725000E-01 3.00075716076000E-01 
3.05122719049000E-01 3.10254543621000E-01 3.15472615332000E-01 3.20778383681000E-01 
3.26173322525000E-01 3.31658930494000E-01 3.37236731403000E-01 3.42908274676000E-01 
3.48675135780000E-01 3.54538916657000E-01 3.60501246172000E-01 3.66563780568000E-01 
3.72728203919000E-01 3.78996228606000E-01 3.85369595786000E-01 3.91850075881000E-01 
3.98439469066000E-01 4.05139605769000E-01 4.11952347184000E-01 4.18879585781000E-01 
4.25923245839000E-01 4.33085283975000E-01 4.40367689691000E-01 4.47772485923000E-01 
4.55301729606000E-01 4.62957512247000E-01 4.70741960500000E-01 4.78657236762000E-01 
4.86705539772000E-01 4.94889105222000E-01 5.03210206376000E-01 5.11671154706000E-01 
5.20274300528000E-01 5.29022033662000E-01 5.37916784089000E-01 5.46961022630000E-01 
5.56157261632000E-01 5.65508055665000E-01 5.75016002232000E-01 5.84683742490000E-01 
5.94513961985000E-01 6.04509391397000E-01 6.14672807298000E-01 6.25007032924000E-01 
6.35514938961000E-01 6.46199444338000E-01 6.57063517042000E-01 6.68110174941000E-01 
6.79342486623000E-01 6.90763572246000E-01 7.02376604408000E-01 7.14184809024000E-01 
7.26191466229000E-01 7.38399911282000E-01 7.50813535495000E-01 7.63435787179000E-01 
7.76270172594000E-01 7.89320256931000E-01 8.02589665297000E-01 8.16082083724000E-01 
8.29801260193000E-01 8.43751005674000E-01 8.57935195186000E-01 8.72357768874000E-01 
8.87022733100000E-01 9.01934161560000E-01 9.17096196413000E-01 9.32513049434000E-01 
9.48189003179000E-01 9.64128412183000E-01 9.80335704160000E-01 9.96815381241000E-01 
1.01357202122000E+00 1.03061027883000E+00 1.04793488702000E+00 1.06555065830000E+00 
1.08346248605000E+00 1.10167534590000E+00 1.12019429709000E+00 1.13902448389000E+00 
1.15817113704000E+00 1.17763957516000E+00 1.19743520628000E+00 1.21756352932000E+00 
1.23803013561000E+00 1.25884071044000E+00 1.28000103467000E+00 1.30151698630000E+00 
1.32339454213000E+00 1.34563977938000E+00 1.36825887744000E+00 1.39125811954000E+00 
1.41464389449000E+00 1.43842269851000E+00 1.46260113696000E+00 1.48718592624000E+00 
1.51218389561000E+00 1.53760198911000E+00 1.56344726749000E+00 1.58972691016000E+00 
1.61644821718000E+00 1.64361861132000E+00 1.67124564008000E+00 1.69933697781000E+00 
1.72790042784000E+00 1.75694392466000E+00 1.78647553607000E+00 1.81650346550000E+00 
1.84703605424000E+00 1.87808178375000E+00 1.90964927805000E+00 1.94174730609000E+00 
1.97438478419000E+00 2.00757077853000E+00 2.04131450765000E+00 2.07562534504000E+00 
2.11051282169000E+00 2.14598662880000E+00 2.18205662044000E+00 2.21873281627000E+00 
2.25602540437000E+00 2.29394474402000E+00 2.33250136862000E+00 2.37170598860000E+00 
2.41156949437000E+00 2.45210295939000E+00 2.49331764321000E+00 2.53522499463000E+00 
2.57783665484000E+00 2.62116446069000E+00 2.66522044796000E+00 2.71001685471000E+00 
2.75556612467000E+00 2.80188091071000E+00 2.84897407834000E+00 2.89685870931000E+00 
2.94554810521000E+00 2.99505579119000E+00 3.04539551968000E+00 3.09658127429000E+00 
3.14862727360000E+00 3.20154797517000E+00 3.25535807954000E+00 3.31007253430000E+00 
3.36570653826000E+00 3.42227554567000E+00 3.47979527051000E+00 3.53828169085000E+00 
3.59775105330000E+00 3.65821987749000E+00 3.71970496073000E+00 3.78222338258000E+00 
3.84579250969000E+00 3.91043000056000E+00 3.97615381044000E+00 4.04298219640000E+00 
4.11093372228000E+00 4.18002726396000E+00 4.25028201453000E+00 4.32171748965000E+00 
4.39435353297000E+00 4.46821032162000E+00 4.54330837187000E+00 4.61966854476000E+00 
4.69731205195000E+00 4.77626046157000E+00 4.85653570424000E+00 4.93816007917000E+00 
5.02115626031000E+00 5.10554730268000E+00 5.19135664880000E+00 5.27860813514000E+00 
5.36732599879000E+00 5.45753488416000E+00 5.54925984987000E+00 5.64252637565000E+00 
5.73736036948000E+00 5.83378817474000E+00 5.93183657756000E+00 6.03153281423000E+00 
6.13290457879000E+00 6.23598003071000E+00 6.34078780274000E+00 6.44735700881000E+00 
6.55571725216000E+00 6.66589863357000E+00 6.77793175967000E+00 6.89184775151000E+00 
7.00767825314000E+00 7.12545544045000E+00 7.24521203008000E+00 7.36698128853000E+00 
7.49079704136000E+00 7.61669368264000E+00 7.74470618447000E+00 7.87487010670000E+00 
8.00722160681000E+00 8.14179744995000E+00 8.27863501918000E+00 8.41777232581000E+00 
8.55924801998000E+00 8.70310140141000E+00 8.84937243029000E+00 8.99810173842000E+00 
9.14933064043000E+00 9.30310114533000E+00 9.45945596814000E+00 9.61843854177000E+00 
9.78009302905000E+00 9.94446433505000E+00 1.01115981195000E+01 1.02815408096000E+01 
1.04543396127000E+01 1.06300425295000E+01 1.08086983676000E+01 1.09903567548000E+01 
1.11750681528000E+01 1.13628838716000E+01 1.15538560835000E+01 1.17480378374000E+01 
1.19454830740000E+01 1.21462466405000E+01 1.23503843059000E+01 1.25579527763000E+01 
1.27690097110000E+01 1.29836137382000E+01 1.32018244717000E+01 1.34237025268000E+01 
1.36493095378000E+01 1.38787081748000E+01 1.41119621610000E+01 1.43491362909000E+01 
1.45902964475000E+01 1.48355096214000E+01 1.50848439288000E+01 1.53383686311000E+01 
1.55961541532000E+01 1.58582721040000E+01 1.61247952957000E+01 1.63957977642000E+01 
1.66713547897000E+01 1.69515429177000E+01 1.72364399798000E+01 1.75261251162000E+01 
1.78206787966000E+01 1.81201828435000E+01 1.84247204544000E+01 1.87343762250000E+01 
1.90492361728000E+01 1.93693877608000E+01 1.96949199223000E+01 2.00259230848000E+01 
2.03624891958000E+01 2.07047117480000E+01 2.10526858055000E+01 2.14065080301000E+01 
2.17662767078000E+01 2.21320917768000E+01 2.25040548546000E+01 2.28822692669000E+01 
2.32668400755000E+01 2.36578741082000E+01 2.40554799881000E+01 2.44597681637000E+01 
2.48708509400000E+01 2.52888425092000E+01 2.57138589829000E+01 2.61460184238000E+01 
2.65854408790000E+01 2.70322484133000E+01 2.74865651425000E+01 2.79485172689000E+01 
2.84182331152000E+01 2.88958431613000E+01 2.93814800796000E+01 2.98752787724000E+01 
3.03773764092000E+01 3.08879124647000E+01 3.14070287579000E+01 3.19348694910000E+01 
3.24715812899000E+01 3.30173132445000E+01 3.35722169507000E+01 3.41364465520000E+01 
3.47101587823000E+01 3.52935130099000E+01 3.58866712814000E+01 3.64897983667000E+01 
3.71030618052000E+01 3.77266319515000E+01 3.83606820238000E+01 3.90053881511000E+01 
3.96609294226000E+01 4.03274879372000E+01 4.10052488545000E+01 4.16944004457000E+01 
4.23951341461000E+01 4.31076446087000E+01 4.38321297575000E+01 4.45687908431000E+01 
4.53178324983000E+01 4.60794627950000E+01 4.68538933021000E+01 4.76413391442000E+01 
4.84420190612000E+01 4.92561554695000E+01 5.00839745232000E+01 5.09257061774000E+01 
5.17815842520000E+01 5.26518464962000E+01 5.35367346552000E+01 5.44364945370000E+01 
5.53513760806000E+01 5.62816334256000E+01 5.72275249830000E+01 5.81893135064000E+01 
5.91672661655000E+01 6.01616546201000E+01 6.11727550956000E+01 6.22008484597000E+01 
6.32462203006000E+01 6.43091610060000E+01 6.53899658440000E+01 6.64889350453000E+01 
6.76063738860000E+01 6.87425927731000E+01 6.98979073302000E+01 7.10726384855000E+01 
7.22671125606000E+01 7.34816613617000E+01 7.47166222713000E+01 7.59723383419000E+01 
7.72491583916000E+01 7.85474371009000E+01 7.98675351112000E+01 8.12098191248000E+01 
8.25746620069000E+01 
</PP_R>
    <PP_RAB>
3.79950818981000E-06 3.86336397975000E-06 3.92829295120000E-06 3.99431314039000E-06 
4.06144288670000E-06 4.12970083769000E-06 4.19910595437000E-06 4.26967751636000E-06 
4.34143512735000E-06 4.41439872045000E-06 4.48858856380000E-06 4.56402526617000E-06 
4.64072978269000E-06 4.71872342065000E-06 4.79802784546000E-06 4.87866508663000E-06 
4.96065754392000E-06 5.04402799354000E-06 5.12879959447000E-06 5.21499589494000E-06 
5.30264083892000E-06 5.39175877277000E-06 5.48237445207000E-06 5.57451304842000E-06 
5.66820015645000E-06 5.76346180097000E-06 5.86032444417000E-06 5.95881499295000E-06 
6.05896080643000E-06 6.16078970354000E-06 6.26432997074000E-06 6.36961036988000E-06 
6.47666014618000E-06 6.58550903640000E-06 6.69618727703000E-06 6.80872561273000E-06 
6.92315530489000E-06 7.03950814026000E-06 7.15781643982000E-06 7.27811306775000E-06 
7.40043144056000E-06 7.52480553635000E-06 7.65126990429000E-06 7.77985967417000E-06 
7.91061056622000E-06 8.04355890095000E-06 8.17874160932000E-06 8.31619624295000E-06 
8.45596098457000E-06 8.59807465861000E-06 8.74257674200000E-06 8.88950737516000E-06 
9.03890737308000E-06 9.19081823672000E-06 9.34528216452000E-06 9.50234206413000E-06 
9.66204156431000E-06 9.82442502704000E-06 9.98953755990000E-06 1.01574250285000E-05 
1.03281340694000E-05 1.05017121029000E-05 1.06782073461000E-05 1.08576688267000E-05 
1.10401463962000E-05 1.12256907441000E-05 1.14143534115000E-05 1.16061868061000E-05 
1.18012442161000E-05 1.19995798254000E-05 1.22012487284000E-05 1.24063069457000E-05 
1.26148114391000E-05 1.28268201279000E-05 1.30423919047000E-05 1.32615866521000E-05 
1.34844652588000E-05 1.37110896371000E-05 1.39415227395000E-05 1.41758285767000E-05 
1.44140722353000E-05 1.46563198955000E-05 1.49026388499000E-05 1.51530975220000E-05 
1.54077654853000E-05 1.56667134826000E-05 1.59300134455000E-05 1.61977385145000E-05 
1.64699630595000E-05 1.67467627001000E-05 1.70282143269000E-05 1.73143961228000E-05 
1.76053875845000E-05 1.79012695448000E-05 1.82021241951000E-05 1.85080351081000E-05 
1.88190872609000E-05 1.91353670590000E-05 1.94569623598000E-05 1.97839624975000E-05 
2.01164583076000E-05 2.04545421522000E-05 2.07983079455000E-05 2.11478511803000E-05 
2.15032689542000E-05 2.18646599966000E-05 2.22321246963000E-05 2.26057651291000E-05 
2.29856850865000E-05 2.33719901042000E-05 2.37647874917000E-05 2.41641863618000E-05 
2.45702976614000E-05 2.49832342015000E-05 2.54031106896000E-05 2.58300437607000E-05 
2.62641520101000E-05 2.67055560261000E-05 2.71543784238000E-05 2.76107438790000E-05 
2.80747791629000E-05 2.85466131770000E-05 2.90263769894000E-05 2.95142038711000E-05 
3.00102293324000E-05 3.05145911615000E-05 3.10274294622000E-05 3.15488866928000E-05 
3.20791077058000E-05 3.26182397884000E-05 3.31664327029000E-05 3.37238387287000E-05 
3.42906127043000E-05 3.48669120705000E-05 3.54528969143000E-05 3.60487300130000E-05 
3.66545768796000E-05 3.72706058088000E-05 3.78969879237000E-05 3.85338972234000E-05 
3.91815106312000E-05 3.98400080439000E-05 4.05095723817000E-05 4.11903896390000E-05 
4.18826489360000E-05 4.25865425714000E-05 4.33022660759000E-05 4.40300182661000E-05 
4.47700012999000E-05 4.55224207332000E-05 4.62874855760000E-05 4.70654083513000E-05 
4.78564051539000E-05 4.86606957100000E-05 4.94785034389000E-05 5.03100555147000E-05 
5.11555829295000E-05 5.20153205573000E-05 5.28895072197000E-05 5.37783857520000E-05 
5.46822030706000E-05 5.56012102416000E-05 5.65356625508000E-05 5.74858195743000E-05 
5.84519452506000E-05 5.94343079542000E-05 6.04331805699000E-05 6.14488405689000E-05 
6.24815700853000E-05 6.35316559952000E-05 6.45993899959000E-05 6.56850686869000E-05 
6.67889936527000E-05 6.79114715462000E-05 6.90528141740000E-05 7.02133385831000E-05 
7.13933671489000E-05 7.25932276646000E-05 7.38132534325000E-05 7.50537833566000E-05 
7.63151620364000E-05 7.75977398631000E-05 7.89018731164000E-05 8.02279240641000E-05 
8.15762610621000E-05 8.29472586572000E-05 8.43412976909000E-05 8.57587654051000E-05 
8.72000555500000E-05 8.86655684932000E-05 9.01557113312000E-05 9.16708980021000E-05 
9.32115494007000E-05 9.47780934957000E-05 9.63709654484000E-05 9.79906077334000E-05 
9.96374702617000E-05 1.01312010506000E-04 1.03014693626000E-04 1.04745992602000E-04 
1.06506388360000E-04 1.08296369911000E-04 1.10116434484000E-04 1.11967087663000E-04 
1.13848843530000E-04 1.15762224809000E-04 1.17707763005000E-04 1.19685998559000E-04 
1.21697480994000E-04 1.23742769066000E-04 1.25822430926000E-04 1.27937044270000E-04 
1.30087196505000E-04 1.32273484909000E-04 1.34496516797000E-04 1.36756909694000E-04 
1.39055291501000E-04 1.41392300672000E-04 1.43768586391000E-04 1.46184808754000E-04 
1.48641638947000E-04 1.51139759440000E-04 1.53679864172000E-04 1.56262658743000E-04 
1.58888860613000E-04 1.61559199299000E-04 1.64274416579000E-04 1.67035266698000E-04 
1.69842516577000E-04 1.72696946024000E-04 1.75599347955000E-04 1.78550528613000E-04 
1.81551307787000E-04 1.84602519048000E-04 1.87705009973000E-04 1.90859642386000E-04 
1.94067292593000E-04 1.97328851630000E-04 2.00645225505000E-04 2.04017335455000E-04 
2.07446118199000E-04 2.10932526199000E-04 2.14477527924000E-04 2.18082108118000E-04 
2.21747268079000E-04 2.25474025928000E-04 2.29263416902000E-04 2.33116493632000E-04 
2.37034326442000E-04 2.41018003645000E-04 2.45068631843000E-04 2.49187336238000E-04 
2.53375260938000E-04 2.57633569285000E-04 2.61963444169000E-04 2.66366088361000E-04 
2.70842724846000E-04 2.75394597162000E-04 2.80022969749000E-04 2.84729128294000E-04 
2.89514380095000E-04 2.94380054418000E-04 2.99327502872000E-04 3.04358099779000E-04 
3.09473242560000E-04 3.14674352120000E-04 3.19962873246000E-04 3.25340275005000E-04 
3.30808051154000E-04 3.36367720557000E-04 3.42020827600000E-04 3.47768942627000E-04 
3.53613662375000E-04 3.59556610414000E-04 3.65599437601000E-04 3.71743822539000E-04 
3.77991472039000E-04 3.84344121601000E-04 3.90803535891000E-04 3.97371509231000E-04 
4.04049866102000E-04 4.10840461644000E-04 4.17745182178000E-04 4.24765945727000E-04 
4.31904702548000E-04 4.39163435674000E-04 4.46544161468000E-04 4.54048930178000E-04 
4.61679826510000E-04 4.69438970207000E-04 4.77328516636000E-04 4.85350657390000E-04 
4.93507620891000E-04 5.01801673016000E-04 5.10235117721000E-04 5.18810297684000E-04 
5.27529594955000E-04 5.36395431616000E-04 5.45410270457000E-04 5.54576615659000E-04 
5.63897013486000E-04 5.73374052998000E-04 5.83010366768000E-04 5.92808631610000E-04 
6.02771569329000E-04 6.12901947471000E-04 6.23202580094000E-04 6.33676328553000E-04 
6.44326102289000E-04 6.55154859640000E-04 6.66165608665000E-04 6.77361407977000E-04 
6.88745367590000E-04 7.00320649790000E-04 7.12090470006000E-04 7.24058097710000E-04 
7.36226857319000E-04 7.48600129122000E-04 7.61181350220000E-04 7.73974015475000E-04 
7.86981678490000E-04 8.00207952586000E-04 8.13656511815000E-04 8.27331091974000E-04 
8.41235491644000E-04 8.55373573250000E-04 8.69749264125000E-04 8.84366557611000E-04 
8.99229514161000E-04 9.14342262469000E-04 9.29709000618000E-04 9.45333997246000E-04 
9.61221592729000E-04 9.77376200391000E-04 9.93802307726000E-04 1.01050447765000E-03 
1.02748734976000E-03 1.04475564162000E-03 1.06231415011000E-03 1.08016775269000E-03 
1.09832140882000E-03 1.11678016128000E-03 1.13554913764000E-03 1.15463355162000E-03 
1.17403870456000E-03 1.19376998692000E-03 1.21383287972000E-03 1.23423295613000E-03 
1.25497588297000E-03 1.27606742228000E-03 1.29751343298000E-03 1.31931987241000E-03 
1.34149279807000E-03 1.36403836925000E-03 1.38696284874000E-03 1.41027260461000E-03 
1.43397411194000E-03 1.45807395463000E-03 1.48257882724000E-03 1.50749553683000E-03 
1.53283100488000E-03 1.55859226918000E-03 1.58478648579000E-03 1.61142093106000E-03 
1.63850300362000E-03 1.66604022644000E-03 1.69404024892000E-03 1.72251084903000E-03 
1.75145993545000E-03 1.78089554979000E-03 1.81082586878000E-03 1.84125920660000E-03 
1.87220401716000E-03 1.90366889642000E-03 1.93566258484000E-03 1.96819396975000E-03 
2.00127208787000E-03 2.03490612778000E-03 2.06910543246000E-03 2.10387950197000E-03 
2.13923799597000E-03 2.17519073650000E-03 2.21174771068000E-03 2.24891907343000E-03 
2.28671515039000E-03 2.32514644071000E-03 2.36422361999000E-03 2.40395754325000E-03 
2.44435924796000E-03 2.48543995706000E-03 2.52721108214000E-03 2.56968422654000E-03 
2.61287118864000E-03 2.65678396509000E-03 2.70143475417000E-03 2.74683595917000E-03 
2.79300019182000E-03 2.83994027581000E-03 2.88766925036000E-03 2.93620037383000E-03 
2.98554712739000E-03 3.03572321880000E-03 3.08674258617000E-03 3.13861940189000E-03 
3.19136807652000E-03 3.24500326280000E-03 3.29953985974000E-03 3.35499301674000E-03 
3.41137813782000E-03 3.46871088588000E-03 3.52700718704000E-03 3.58628323510000E-03 
3.64655549601000E-03 3.70784071245000E-03 3.77015590848000E-03 3.83351839429000E-03 
3.89794577097000E-03 3.96345593542000E-03 4.03006708534000E-03 4.09779772426000E-03 
4.16666666667000E-03 4.23669304328000E-03 4.30789630631000E-03 4.38029623490000E-03 
4.45391294061000E-03 4.52876687301000E-03 4.60487882532000E-03 4.68226994024000E-03 
4.76096171582000E-03 4.84097601137000E-03 4.92233505361000E-03 5.00506144279000E-03 
5.08917815900000E-03 5.17470856854000E-03 5.26167643039000E-03 5.35010590287000E-03 
5.44002155027000E-03 5.53144834975000E-03 5.62441169823000E-03 5.71893741946000E-03 
5.81505177119000E-03 5.91278145247000E-03 6.01215361106000E-03 6.11319585098000E-03 
6.21593624017000E-03 6.32040331828000E-03 6.42662610463000E-03 6.53463410621000E-03 
6.64445732595000E-03 6.75612627101000E-03 6.86967196125000E-03 6.98512593788000E-03 
7.10252027218000E-03 7.22188757445000E-03 7.34326100304000E-03 7.46667427357000E-03 
7.59216166829000E-03 7.71975804564000E-03 7.84949884985000E-03 7.98142012089000E-03 
8.11555850439000E-03 8.25195126189000E-03 8.39063628113000E-03 8.53165208662000E-03 
8.67503785033000E-03 8.82083340255000E-03 8.96907924300000E-03 9.11981655202000E-03 
9.27308720205000E-03 9.42893376927000E-03 9.58739954539000E-03 9.74852854969000E-03 
9.91236554128000E-03 1.00789560315000E-02 1.02483462965000E-02 1.04205833903000E-02 
1.05957151575000E-02 1.07737902471000E-02 1.09548581256000E-02 1.11389690905000E-02 
1.13261742852000E-02 1.15165257123000E-02 1.17100762483000E-02 1.19068796586000E-02 
1.21069906120000E-02 1.23104646962000E-02 1.25173584331000E-02 1.27277292945000E-02 
1.29416357181000E-02 1.31591371237000E-02 1.33802939298000E-02 1.36051675703000E-02 
1.38338205114000E-02 1.40663162694000E-02 1.43027194280000E-02 1.45430956561000E-02 
1.47875117265000E-02 1.50360355342000E-02 1.52887361151000E-02 1.55456836654000E-02 
1.58069495612000E-02 1.60726063779000E-02 1.63427279109000E-02 1.66173891955000E-02 
1.68966665285000E-02 1.71806374886000E-02 1.74693809585000E-02 1.77629771465000E-02 
1.80615076091000E-02 1.83650552733000E-02 1.86737044597000E-02 1.89875409064000E-02 
1.93066517921000E-02 1.96311257608000E-02 1.99610529462000E-02 2.02965249969000E-02 
2.06376351016000E-02 2.09844780156000E-02 2.13371500861000E-02 2.16957492799000E-02 
2.20603752103000E-02 2.24311291645000E-02 2.28081141322000E-02 2.31914348338000E-02 
2.35811977497000E-02 2.39775111500000E-02 2.43804851243000E-02 2.47902316122000E-02 
2.52068644351000E-02 2.56304993268000E-02 2.60612539664000E-02 2.64992480108000E-02 
2.69446031279000E-02 2.73974430302000E-02 2.78578935095000E-02 2.83260824717000E-02 
2.88021399723000E-02 2.92861982525000E-02 2.97783917760000E-02 3.02788572666000E-02 
3.07877337455000E-02 3.13051625707000E-02 3.18312874757000E-02 3.23662546096000E-02 
3.29102125779000E-02 3.34633124836000E-02 3.40257079690000E-02 3.45975552588000E-02 
3.51790132030000E-02 3.57702433216000E-02 3.63714098488000E-02 3.69826797794000E-02 
3.76042229143000E-02 3.82362119085000E-02 3.88788223186000E-02 3.95322326515000E-02 
4.01966244143000E-02 4.08721821647000E-02 4.15590935617000E-02 4.22575494187000E-02 
4.29677437555000E-02 4.36898738530000E-02 4.44241403075000E-02 4.51707470867000E-02 
4.59299015860000E-02 4.67018146867000E-02 4.74867008139000E-02 4.82847779968000E-02 
4.90962679284000E-02 4.99213960279000E-02 5.07603915029000E-02 5.16134874131000E-02 
5.24809207349000E-02 5.33629324278000E-02 5.42597675005000E-02 5.51716750798000E-02 
5.60989084792000E-02 5.70417252694000E-02 5.80003873501000E-02 5.89751610224000E-02 
5.99663170631000E-02 6.09741307997000E-02 6.19988821870000E-02 6.30408558846000E-02 