<UPF version="2.0.1">
  <PP_INFO>
Generated using Vanderbilt code, version   7  3  6
Author: kfg        Generation date:   13    4   15
Automatically converted from original USPP format to UPF.v1.

Futher converted to UPF.v2 format.
Convert Q_IJ to Q_IJL use the same routine as 'upflib/upf_to_internal.f90' of QE.
The conversion is done by using PseudoPotentialIO.jl package.
Converted by: JYU on 2024-04-30

1        The Pseudo was generated with a Scalar-Relativistic Calculation
1.40000000000E+00    Local Potential cutoff radius
nl pn  l   occ               Rcut            Rcut US             E pseu
4S  4  0  2.00      0.00000000000      1.50000000000     -1.47981499300
4P  4  1  5.00      0.00000000000      1.50000000000     -0.57768709200
</PP_INFO>
  <PP_HEADER element="Br" pseudo_type="US" relativistic="scalar" is_ultrasoft="T" is_paw="F" is_coulomb="F" has_so="F" has_wfc="F" has_gipaw="F" core_correction="T" functional="PBE" z_valence="7.0" total_psenergy="-46.7273897678" wfc_cutoff="0.0" rho_cutoff="0.0" l_max="2" mesh_size="879" number_of_wfc="2" number_of_proj="6"/>
  <PP_MESH>
    <PP_R>
0.00000000000000E+00 1.21059454514000E-06 2.44188251451000E-06 3.69421763331000E-06 
4.96795967320000E-06 6.26347455560000E-06 7.58113445688000E-06 8.92131791523000E-06 
1.02844099394000E-05 1.16708021194000E-05 1.30808927389000E-05 1.45150868895000E-05 
1.59737965876000E-05 1.74574408921000E-05 1.89664460255000E-05 2.05012454956000E-05 
2.20622802207000E-05 2.36499986558000E-05 2.52648569217000E-05 2.69073189359000E-05 
2.85778565460000E-05 3.02769496652000E-05 3.20050864099000E-05 3.37627632405000E-05 
3.55504851035000E-05 3.73687655767000E-05 3.92181270170000E-05 4.10991007102000E-05 
4.30122270235000E-05 4.49580555612000E-05 4.69371453221000E-05 4.89500648604000E-05 
5.09973924489000E-05 5.30797162453000E-05 5.51976344609000E-05 5.73517555326000E-05 
5.95426982977000E-05 6.17710921716000E-05 6.40375773289000E-05 6.63428048867000E-05 
6.86874370925000E-05 7.10721475136000E-05 7.34976212312000E-05 7.59645550371000E-05 
7.84736576334000E-05 8.10256498369000E-05 8.36212647855000E-05 8.62612481492000E-05 
8.89463583440000E-05 9.16773667503000E-05 9.44550579339000E-05 9.72802298717000E-05 
1.00153694181000E-04 1.03076276352000E-04 1.06048815987000E-04 1.09072167038000E-04 
1.12147198056000E-04 1.15274792438000E-04 1.18455848681000E-04 1.21691280641000E-04 
1.24982017794000E-04 1.28329005507000E-04 1.31733205304000E-04 1.35195595145000E-04 
1.38717169708000E-04 1.42298940674000E-04 1.45941937015000E-04 1.49647205295000E-04 
1.53415809965000E-04 1.57248833673000E-04 1.61147377571000E-04 1.65112561636000E-04 
1.69145524989000E-04 1.73247426222000E-04 1.77419443732000E-04 1.81662776059000E-04 
1.85978642230000E-04 1.90368282109000E-04 1.94832956757000E-04 1.99373948786000E-04 
2.03992562737000E-04 2.08690125447000E-04 2.13467986436000E-04 2.18327518290000E-04 
2.23270117060000E-04 2.28297202657000E-04 2.33410219267000E-04 2.38610635760000E-04 
2.43899946115000E-04 2.49279669849000E-04 2.54751352452000E-04 2.60316565833000E-04 
2.65976908770000E-04 2.71734007370000E-04 2.77589515535000E-04 2.83545115441000E-04 
2.89602518015000E-04 2.95763463432000E-04 3.02029721613000E-04 3.08403092732000E-04 
3.14885407736000E-04 3.21478528868000E-04 3.28184350205000E-04 3.35004798198000E-04 
3.41941832231000E-04 3.48997445180000E-04 3.56173663985000E-04 3.63472550235000E-04 
3.70896200759000E-04 3.78446748228000E-04 3.86126361769000E-04 3.93937247585000E-04 
4.01881649594000E-04 4.09961850067000E-04 4.18180170291000E-04 4.26538971229000E-04 
4.35040654204000E-04 4.43687661584000E-04 4.52482477488000E-04 4.61427628495000E-04 
4.70525684374000E-04 4.79779258822000E-04 4.89191010210000E-04 4.98763642353000E-04 
5.08499905283000E-04 5.18402596040000E-04 5.28474559474000E-04 5.38718689067000E-04 
5.49137927759000E-04 5.59735268795000E-04 5.70513756586000E-04 5.81476487583000E-04 
5.92626611167000E-04 6.03967330552000E-04 6.15501903708000E-04 6.27233644295000E-04 
6.39165922613000E-04 6.51302166577000E-04 6.63645862693000E-04 6.76200557068000E-04 
6.88969856422000E-04 7.01957429127000E-04 7.15167006261000E-04 7.28602382682000E-04 
7.42267418112000E-04 7.56166038251000E-04 7.70302235904000E-04 7.84680072128000E-04 
7.99303677396000E-04 8.14177252787000E-04 8.29305071192000E-04 8.44691478540000E-04 
8.60340895048000E-04 8.76257816490000E-04 8.92446815491000E-04 9.08912542836000E-04 
9.25659728810000E-04 9.42693184556000E-04 9.60017803456000E-04 9.77638562537000E-04 
9.95560523903000E-04 1.01378883619000E-03 1.03232873603000E-03 1.05118554958000E-03 
1.07036469405000E-03 1.08987167923000E-03 1.10971210909000E-03 1.12989168341000E-03 
1.15041619939000E-03 1.17129155333000E-03 1.19252374231000E-03 1.21411886592000E-03 
1.23608312804000E-03 1.25842283856000E-03 1.28114441526000E-03 1.30425438560000E-03 
1.32775938864000E-03 1.35166617689000E-03 1.37598161833000E-03 1.40071269830000E-03 
1.42586652157000E-03 1.45145031434000E-03 1.47747142635000E-03 1.50393733294000E-03 
1.53085563728000E-03 1.55823407246000E-03 1.58608050378000E-03 1.61440293099000E-03 
1.64320949055000E-03 1.67250845805000E-03 1.70230825051000E-03 1.73261742884000E-03 
1.76344470026000E-03 1.79479892087000E-03 1.82668909812000E-03 1.85912439345000E-03 
1.89211412488000E-03 1.92566776973000E-03 1.95979496731000E-03 1.99450552171000E-03 
2.02980940459000E-03 2.06571675807000E-03 2.10223789766000E-03 2.13938331515000E-03 
2.17716368172000E-03 2.21558985092000E-03 2.25467286186000E-03 2.29442394233000E-03 
2.33485451204000E-03 2.37597618591000E-03 2.41780077741000E-03 2.46034030193000E-03 
2.50360698025000E-03 2.54761324206000E-03 2.59237172949000E-03 2.63789530080000E-03 
2.68419703403000E-03 2.73129023077000E-03 2.77918841999000E-03 2.82790536190000E-03 
2.87745505194000E-03 2.92785172478000E-03 2.97910985842000E-03 3.03124417830000E-03 
3.08426966163000E-03 3.13820154159000E-03 3.19305531178000E-03 3.24884673060000E-03 
3.30559182587000E-03 3.36330689935000E-03 3.42200853147000E-03 3.48171358606000E-03 
3.54243921523000E-03 3.60420286428000E-03 3.66702227672000E-03 3.73091549934000E-03 
3.79590088743000E-03 3.86199711003000E-03 3.92922315532000E-03 3.99759833603000E-03 
4.06714229502000E-03 4.13787501094000E-03 4.20981680393000E-03 4.28298834146000E-03 
4.35741064430000E-03 4.43310509255000E-03 4.51009343175000E-03 4.58839777916000E-03 
4.66804063011000E-03 4.74904486445000E-03 4.83143375312000E-03 4.91523096486000E-03 
5.00046057299000E-03 5.08714706232000E-03 5.17531533620000E-03 5.26499072368000E-03 
5.35619898675000E-03 5.44896632779000E-03 5.54331939706000E-03 5.63928530037000E-03 
5.73689160686000E-03 5.83616635694000E-03 5.93713807032000E-03 6.03983575423000E-03 
6.14428891172000E-03 6.25052755015000E-03 6.35858218985000E-03 6.46848387281000E-03 
6.58026417165000E-03 6.69395519871000E-03 6.80958961520000E-03 6.92720064066000E-03 
7.04682206246000E-03 7.16848824552000E-03 7.29223414219000E-03 7.41809530225000E-03 
7.54610788320000E-03 7.67630866055000E-03 7.80873503849000E-03 7.94342506054000E-03 
8.08041742054000E-03 8.21975147375000E-03 8.36146724815000E-03 8.50560545592000E-03 
8.65220750520000E-03 8.80131551191000E-03 8.95297231189000E-03 9.10722147322000E-03 
9.26410730869000E-03 9.42367488856000E-03 9.58597005352000E-03 9.75103942782000E-03 
9.91893043270000E-03 1.00896913000000E-02 1.02633710860000E-02 1.04400196856000E-02 
1.06196878464000E-02 1.08024271837000E-02 1.09882901949000E-02 1.11773302750000E-02 
1.13696017313000E-02 1.15651597999000E-02 1.17640606607000E-02 1.19663614542000E-02 
1.21721202974000E-02 1.23813963008000E-02 1.25942495855000E-02 1.28107413000000E-02 
1.30309336382000E-02 1.32548898572000E-02 1.34826742951000E-02 1.37143523901000E-02 
1.39499906988000E-02 1.41896569156000E-02 1.44334198918000E-02 1.46813496559000E-02 
1.49335174334000E-02 1.51899956670000E-02 1.54508580381000E-02 1.57161794874000E-02 
1.59860362366000E-02 1.62605058103000E-02 1.65396670582000E-02 1.68236001782000E-02 
1.71123867385000E-02 1.74061097021000E-02 1.77048534498000E-02 1.80087038049000E-02 
1.83177480578000E-02 1.86320749909000E-02 1.89517749042000E-02 1.92769396414000E-02 
1.96076626160000E-02 1.99440388382000E-02 2.02861649425000E-02 2.06341392151000E-02 
2.09880616223000E-02 2.13480338390000E-02 2.17141592784000E-02 2.20865431213000E-02 
2.24652923462000E-02 2.28505157605000E-02 2.32423240315000E-02 2.36408297181000E-02 
2.40461473032000E-02 2.44583932268000E-02 2.48776859190000E-02 2.53041458347000E-02 
2.57378954875000E-02 2.61790594853000E-02 2.66277645659000E-02 2.70841396336000E-02 
2.75483157962000E-02 2.80204264025000E-02 2.85006070807000E-02 2.89889957774000E-02 
2.94857327973000E-02 2.99909608434000E-02 3.05048250577000E-02 3.10274730637000E-02 
3.15590550079000E-02 3.20997236036000E-02 3.26496341743000E-02 3.32089446988000E-02 
3.37778158561000E-02 3.43564110719000E-02 3.49448965655000E-02 3.55434413972000E-02 
3.61522175176000E-02 3.67713998160000E-02 3.74011661718000E-02 3.80416975045000E-02 
3.86931778263000E-02 3.93557942951000E-02 4.00297372676000E-02 4.07152003547000E-02 
4.14123804767000E-02 4.21214779198000E-02 4.28426963940000E-02 4.35762430916000E-02 
4.43223287462000E-02 4.50811676938000E-02 4.58529779342000E-02 4.66379811935000E-02 
4.74364029879000E-02 4.82484726887000E-02 4.90744235876000E-02 4.99144929645000E-02 
5.07689221549000E-02 5.16379566199000E-02 5.25218460162000E-02 5.34208442682000E-02 
5.43352096406000E-02 5.52652048130000E-02 5.62110969550000E-02 5.71731578030000E-02 
5.81516637386000E-02 5.91468958675000E-02 6.01591401007000E-02 6.11886872363000E-02 
6.22358330434000E-02 6.33008783467000E-02 6.43841291130000E-02 6.54858965393000E-02 
6.66064971422000E-02 6.77462528485000E-02 6.89054910879000E-02 7.00845448871000E-02 
7.12837529656000E-02 7.25034598325000E-02 7.37440158861000E-02 7.50057775141000E-02 
7.62891071961000E-02 7.75943736081000E-02 7.89219517277000E-02 8.02722229425000E-02 
8.16455751592000E-02 8.30424029154000E-02 8.44631074927000E-02 8.59080970320000E-02 
8.73777866508000E-02 8.88725985625000E-02 9.03929621977000E-02 9.19393143273000E-02 
9.35120991886000E-02 9.51117686120000E-02 9.67387821517000E-02 9.83936072171000E-02 
1.00076719208000E-01 1.01788601649000E-01 1.03529746331000E-01 1.05300653451000E-01 
1.07101831758000E-01 1.08933798693000E-01 1.10797080547000E-01 1.12692212604000E-01 
1.14619739298000E-01 1.16580214371000E-01 1.18574201029000E-01 1.20602272106000E-01 
1.22665010228000E-01 1.24763007980000E-01 1.26896868075000E-01 1.29067203530000E-01 
1.31274637841000E-01 1.33519805161000E-01 1.35803350483000E-01 1.38125929825000E-01 
1.40488210419000E-01 1.42890870904000E-01 1.45334601516000E-01 1.47820104292000E-01 
1.50348093270000E-01 1.52919294691000E-01 1.55534447212000E-01 1.58194302116000E-01 
1.60899623527000E-01 1.63651188632000E-01 1.66449787902000E-01 1.69296225322000E-01 
1.72191318616000E-01 1.75135899490000E-01 1.78130813864000E-01 1.81176922120000E-01 
1.84275099345000E-01 1.87426235586000E-01 1.90631236103000E-01 1.93891021631000E-01 
1.97206528644000E-01 2.00578709621000E-01 2.04008533327000E-01 2.07496985081000E-01 
2.11045067050000E-01 2.14653798529000E-01 2.18324216235000E-01 2.22057374610000E-01 
2.25854346117000E-01 2.29716221553000E-01 2.33644110360000E-01 2.37639140944000E-01 
2.41702461001000E-01 2.45835237843000E-01 2.50038658738000E-01 2.54313931246000E-01 
2.58662283571000E-01 2.63084964911000E-01 2.67583245816000E-01 2.72158418554000E-01 
2.76811797486000E-01 2.81544719437000E-01 2.86358544082000E-01 2.91254654342000E-01 
2.96234456774000E-01 3.01299381978000E-01 3.06450885010000E-01 3.11690445797000E-01 
3.17019569563000E-01 3.22439787262000E-01 3.27952656018000E-01 3.33559759572000E-01 
3.39262708736000E-01 3.45063141857000E-01 3.50962725287000E-01 3.56963153862000E-01 
3.63066151389000E-01 3.69273471142000E-01 3.75586896362000E-01 3.82008240776000E-01 
3.88539349111000E-01 3.95182097627000E-01 4.01938394659000E-01 4.08810181160000E-01 
4.15799431260000E-01 4.22908152837000E-01 4.30138388088000E-01 4.37492214120000E-01 
4.44971743545000E-01 4.52579125087000E-01 4.60316544199000E-01 4.68186223693000E-01 
4.76190424374000E-01 4.84331445695000E-01 4.92611626415000E-01 5.01033345267000E-01 
5.09599021650000E-01 5.18311116317000E-01 5.27172132083000E-01 5.36184614546000E-01 
5.45351152820000E-01 5.54674380273000E-01 5.64156975287000E-01 5.73801662029000E-01 
5.83611211230000E-01 5.93588440985000E-01 6.03736217558000E-01 6.14057456210000E-01 
6.24555122031000E-01 6.35232230799000E-01 6.46091849841000E-01 6.57137098914000E-01 
6.68371151105000E-01 6.79797233739000E-01 6.91418629311000E-01 7.03238676420000E-01 
7.15260770738000E-01 7.27488365981000E-01 7.39924974899000E-01 7.52574170291000E-01 
7.65439586024000E-01 7.78524918083000E-01 7.91833925633000E-01 8.05370432092000E-01 
8.19138326237000E-01 8.33141563318000E-01 8.47384166194000E-01 8.61870226488000E-01 
8.76603905767000E-01 8.91589436730000E-01 9.06831124431000E-01 9.22333347512000E-01 
9.38100559462000E-01 9.54137289894000E-01 9.70448145853000E-01 9.87037813130000E-01 
1.00391105762000E+00 1.02107272667000E+00 1.03852775050000E+00 1.05628114361000E+00 
1.07433800619000E+00 1.09270352564000E+00 1.11138297802000E+00 1.13038172956000E+00 
1.14970523824000E+00 1.16935905534000E+00 1.18934882702000E+00 1.20968029594000E+00 
1.23035930294000E+00 1.25139178872000E+00 1.27278379548000E+00 1.29454146874000E+00 
1.31667105907000E+00 1.33917892385000E+00 1.36207152917000E+00 1.38535545163000E+00 
1.40903738025000E+00 1.43312411839000E+00 1.45762258570000E+00 1.48253982012000E+00 
1.50788297989000E+00 1.53365934560000E+00 1.55987632231000E+00 1.58654144165000E+00 
1.61366236399000E+00 1.64124688065000E+00 1.66930291612000E+00 1.69783853037000E+00 
1.72686192111000E+00 1.75638142622000E+00 1.78640552606000E+00 1.81694284599000E+00 
1.84800215879000E+00 1.87959238719000E+00 1.91172260646000E+00 1.94440204699000E+00 
1.97764009694000E+00 2.01144630497000E+00 2.04583038295000E+00 2.08080220875000E+00 
2.11637182911000E+00 2.15254946248000E+00 2.18934550201000E+00 2.22677051848000E+00 
2.26483526338000E+00 2.30355067197000E+00 2.34292786643000E+00 2.38297815908000E+00 
2.42371305559000E+00 2.46514425830000E+00 2.50728366961000E+00 2.55014339533000E+00 
2.59373574826000E+00 2.63807325161000E+00 2.68316864271000E+00 2.72903487659000E+00 
2.77568512972000E+00 2.82313280382000E+00 2.87139152970000E+00 2.92047517114000E+00 
2.97039782893000E+00 3.02117384488000E+00 3.07281780596000E+00 3.12534454849000E+00 
3.17876916236000E+00 3.23310699545000E+00 3.28837365797000E+00 3.34458502695000E+00 
3.40175725083000E+00 3.45990675409000E+00 3.51905024195000E+00 3.57920470520000E+00 
3.64038742504000E+00 3.70261597809000E+00 3.76590824141000E+00 3.83028239764000E+00 
3.89575694023000E+00 3.96235067874000E+00 4.03008274428000E+00 4.09897259495000E+00 
4.16904002148000E+00 4.24030515287000E+00 4.31278846222000E+00 4.38651077259000E+00 
4.46149326297000E+00 4.53775747438000E+00 4.61532531604000E+00 4.69421907170000E+00 
4.77446140601000E+00 4.85607537104000E+00 4.93908441290000E+00 5.02351237848000E+00 
5.10938352230000E+00 5.19672251348000E+00 5.28555444283000E+00 5.37590483003000E+00 
5.46779963101000E+00 5.56126524536000E+00 5.65632852395000E+00 5.75301677661000E+00 
5.85135778001000E+00 5.95137978562000E+00 6.05311152783000E+00 6.15658223218000E+00 
6.26182162383000E+00 6.36885993600000E+00 6.47772791873000E+00 6.58845684769000E+00 
6.70107853316000E+00 6.81562532916000E+00 6.93213014278000E+00 7.05062644359000E+00 
7.17114827329000E+00 7.29373025546000E+00 7.41840760554000E+00 7.54521614092000E+00 
7.67419229124000E+00 7.80537310885000E+00 7.93879627945000E+00 8.07450013295000E+00 
8.21252365444000E+00 8.35290649540000E+00 8.49568898510000E+00 8.64091214220000E+00 
8.78861768649000E+00 8.93884805092000E+00 9.09164639377000E+00 9.24705661104000E+00 
9.40512334908000E+00 9.56589201741000E+00 9.72940880175000E+00 9.89572067732000E+00 
1.00648754223000E+01 1.02369216316000E+01 1.04119087307000E+01 1.05898869900000E+01 
1.07709075393000E+01 1.09550223822000E+01 1.11422844115000E+01 1.13327474238000E+01 
1.15264661354000E+01 1.17234961981000E+01 1.19238942148000E+01 1.21277177558000E+01 
1.23350253758000E+01 1.25458766303000E+01 1.27603320927000E+01 1.29784533719000E+01 
1.32003031300000E+01 1.34259451001000E+01 1.36554441047000E+01 1.38888660746000E+01 
1.41262780672000E+01 1.43677482866000E+01 1.46133461023000E+01 1.48631420699000E+01 
1.51172079510000E+01 1.53756167337000E+01 1.56384426540000E+01 1.59057612165000E+01 
1.61776492168000E+01 1.64541847630000E+01 1.67354472984000E+01 1.70215176244000E+01 
1.73124779233000E+01 1.76084117825000E+01 1.79094042179000E+01 1.82155416990000E+01 
1.85269121731000E+01 1.88436050909000E+01 1.91657114321000E+01 1.94933237317000E+01 
1.98265361064000E+01 2.01654442815000E+01 2.05101456190000E+01 2.08607391447000E+01 
2.12173255774000E+01 2.15800073576000E+01 2.19488886766000E+01 2.23240755069000E+01 
2.27056756325000E+01 2.30937986797000E+01 2.34885561487000E+01 2.38900614457000E+01 
2.42984299155000E+01 2.47137788742000E+01 2.51362276438000E+01 2.55658975855000E+01 
2.60029121352000E+01 2.64473968387000E+01 2.68994793879000E+01 2.73592896574000E+01 
2.78269597417000E+01 2.83026239934000E+01 2.87864190616000E+01 2.92784839314000E+01 
2.97789599633000E+01 3.02879909346000E+01 3.08057230798000E+01 3.13323051336000E+01 
3.18678883727000E+01 3.24126266597000E+01 3.29666764876000E+01 3.35301970240000E+01 
3.41033501575000E+01 3.46863005440000E+01 3.52792156537000E+01 3.58822658197000E+01 
3.64956242867000E+01 3.71194672607000E+01 3.77539739597000E+01 3.83993266652000E+01 
3.90557107745000E+01 3.97233148541000E+01 4.04023306937000E+01 4.10929533615000E+01 
4.17953812599000E+01 4.25098161829000E+01 4.32364633739000E+01 4.39755315845000E+01 
4.47272331347000E+01 4.54917839738000E+01 4.62694037424000E+01 4.70603158358000E+01 
4.78647474676000E+01 4.86829297355000E+01 4.95150976873000E+01 5.03614903889000E+01 
5.12223509926000E+01 5.20979268068000E+01 5.29884693675000E+01 5.38942345105000E+01 
5.48154824446000E+01 5.57524778263000E+01 5.67054898365000E+01 5.76747922568000E+01 
5.86606635494000E+01 5.96633869357000E+01 6.06832504789000E+01 6.17205471661000E+01 
6.27755749925000E+01 6.38486370471000E+01 6.49400416000000E+01 6.60501021905000E+01 
6.71791377177000E+01 6.83274725314000E+01 6.94954365262000E+01 7.06833652354000E+01 
7.18915999281000E+01 7.31204877065000E+01 7.43703816065000E+01 7.56416406984000E+01 
7.69346301902000E+01 7.82497215329000E+01 7.95872925267000E+01 8.09477274300000E+01 
8.23314170692000E+01 8.37387589518000E+01 8.51701573797000E+01 8.66260235661000E+01 
8.81067757531000E+01 8.96128393322000E+01 9.11446469662000E+01 9.27026387140000E+01 
9.42872621564000E+01 9.58989725249000E+01 9.75382328330000E+01 9.92055140081000E+01 
1.00901295028000E+02 1.02626063058000E+02 1.04380313590000E+02 1.06164550587000E+02 
1.07979286625000E+02 1.09825043043000E+02 1.11702350092000E+02 1.13611747084000E+02 
1.15553782552000E+02 1.17529014407000E+02 1.19538010094000E+02 1.21581346758000E+02 
1.23659611411000E+02 1.25773401098000E+02 1.27923323069000E+02 1.30109994956000E+02 
1.32334044947000E+02 1.34596111969000E+02 1.36896845870000E+02 1.39236907605000E+02 
1.41616969430000E+02 1.44037715091000E+02 1.46499840020000E+02 1.49004051539000E+02 
1.51551069058000E+02 1.54141624288000E+02 1.56776461443000E+02 1.59456337463000E+02 
1.62182022223000E+02 1.64954298760000E+02 1.67773963495000E+02 1.70641826464000E+02 
1.73558711548000E+02 1.76525456712000E+02 1.79542914244000E+02 1.82611951001000E+02 
1.85733448658000E+02 1.88908303961000E+02 1.92137428985000E+02 1.95421751395000E+02 
1.98762214712000E+02 2.02159778588000E+02 2.05615419077000E+02 
</PP_R>
    <PP_RAB>
1.20036425020000E-06 1.22088280181000E-06 1.24175208943000E-06 1.26297810839000E-06 
1.28456695653000E-06 1.30652483589000E-06 1.32885805456000E-06 1.35157302843000E-06 
1.37467628307000E-06 1.39817445562000E-06 1.42207429662000E-06 1.44638267206000E-06 
1.47110656525000E-06 1.49625307888000E-06 1.52182943707000E-06 1.54784298741000E-06 
1.57430120309000E-06 1.60121168504000E-06 1.62858216413000E-06 1.65642050335000E-06 
1.68473470013000E-06 1.71353288859000E-06 1.74282334190000E-06 1.77261447462000E-06 
1.80291484518000E-06 1.83373315828000E-06 1.86507826744000E-06 1.89695917749000E-06 
1.92938504721000E-06 1.96236519192000E-06 1.99590908617000E-06 2.03002636648000E-06 
2.06472683408000E-06 2.10002045775000E-06 2.13591737666000E-06 2.17242790330000E-06 
2.20956252643000E-06 2.24733191413000E-06 2.28574691679000E-06 2.32481857032000E-06 
2.36455809923000E-06 2.40497691992000E-06 2.44608664395000E-06 2.48789908134000E-06 
2.53042624399000E-06 2.57368034913000E-06 2.61767382284000E-06 2.66241930358000E-06 
2.70792964586000E-06 2.75421792394000E-06 2.80129743552000E-06 2.84918170565000E-06 
2.89788449056000E-06 2.94741978159000E-06 2.99780180930000E-06 3.04904504746000E-06 
3.10116421726000E-06 3.15417429152000E-06 3.20809049903000E-06 3.26292832885000E-06 
3.31870353485000E-06 3.37543214015000E-06 3.43313044179000E-06 3.49181501537000E-06 
3.55150271983000E-06 3.61221070230000E-06 3.67395640301000E-06 3.73675756029000E-06 
3.80063221571000E-06 3.86559871923000E-06 3.93167573445000E-06 3.99888224403000E-06 
4.06723755510000E-06 4.13676130481000E-06 4.20747346600000E-06 4.27939435289000E-06 
4.35254462697000E-06 4.42694530290000E-06 4.50261775455000E-06 4.57958372115000E-06 
4.65786531353000E-06 4.73748502049000E-06 4.81846571522000E-06 4.90083066190000E-06 
4.98460352240000E-06 5.06980836304000E-06 5.15646966151000E-06 5.24461231393000E-06 
5.33426164199000E-06 5.42544340019000E-06 5.51818378329000E-06 5.61250943382000E-06 
5.70844744969000E-06 5.80602539206000E-06 5.90527129317000E-06 6.00621366445000E-06 
6.10888150469000E-06 6.21330430837000E-06 6.31951207415000E-06 6.42753531346000E-06 
6.53740505929000E-06 6.64915287509000E-06 6.76281086384000E-06 6.87841167729000E-06 
6.99598852531000E-06 7.11557518545000E-06 7.23720601265000E-06 7.36091594910000E-06 
7.48674053425000E-06 7.61471591509000E-06 7.74487885646000E-06 7.87726675165000E-06 
8.01191763315000E-06 8.14887018355000E-06 8.28816374666000E-06 8.42983833884000E-06 
8.57393466044000E-06 8.72049410756000E-06 8.86955878389000E-06 9.02117151282000E-06 
9.17537584977000E-06 9.33221609464000E-06 9.49173730461000E-06 9.65398530704000E-06 
9.81900671263000E-06 9.98684892884000E-06 1.01575601735000E-05 1.03311894886000E-05 
1.05077867546000E-05 1.06874027044000E-05 1.08700889381000E-05 1.10558979381000E-05 
1.12448830835000E-05 1.14370986663000E-05 1.16325999063000E-05 1.18314429671000E-05 
1.20336849725000E-05 1.22393840227000E-05 1.24485992111000E-05 1.26613906412000E-05 
1.28778194438000E-05 1.30979477947000E-05 1.33218389326000E-05 1.35495571770000E-05 
1.37811679470000E-05 1.40167377799000E-05 1.42563343503000E-05 1.45000264897000E-05 
1.47478842061000E-05 1.49999787042000E-05 1.52563824060000E-05 1.55171689712000E-05 
1.57824133188000E-05 1.60521916483000E-05 1.63265814619000E-05 1.66056615864000E-05 
1.68895121961000E-05 1.71782148359000E-05 1.74718524444000E-05 1.77705093780000E-05 
1.80742714350000E-05 1.83832258805000E-05 1.86974614710000E-05 1.90170684805000E-05 
1.93421387256000E-05 1.96727655930000E-05 2.00090440652000E-05 2.03510707486000E-05 
2.06989439009000E-05 2.10527634591000E-05 2.14126310689000E-05 2.17786501133000E-05 
2.21509257424000E-05 2.25295649038000E-05 2.29146763733000E-05 2.33063707859000E-05 
2.37047606678000E-05 2.41099604687000E-05 2.45220865947000E-05 2.49412574417000E-05 
2.53675934293000E-05 2.58012170356000E-05 2.62422528323000E-05 2.66908275204000E-05 
2.71470699668000E-05 2.76111112411000E-05 2.80830846533000E-05 2.85631257923000E-05 
2.90513725647000E-05 2.95479652342000E-05 3.00530464623000E-05 3.05667613491000E-05 
3.10892574750000E-05 3.16206849430000E-05 3.21611964218000E-05 3.27109471900000E-05 
3.32700951804000E-05 3.38388010253000E-05 3.44172281030000E-05 3.50055425842000E-05 
3.56039134805000E-05 3.62125126921000E-05 3.68315150579000E-05 3.74610984053000E-05 
3.81014436013000E-05 3.87527346048000E-05 3.94151585190000E-05 4.00889056456000E-05 
4.07741695390000E-05 4.14711470622000E-05 4.21800384436000E-05 4.29010473337000E-05 
4.36343808646000E-05 4.43802497088000E-05 4.51388681399000E-05 4.59104540943000E-05 
4.66952292338000E-05 4.74934190090000E-05 4.83052527245000E-05 4.91309636044000E-05 
4.99707888594000E-05 5.08249697550000E-05 5.16937516810000E-05 5.25773842215000E-05 
5.34761212270000E-05 5.43902208874000E-05 5.53199458057000E-05 5.62655630740000E-05 
5.72273443498000E-05 5.82055659342000E-05 5.92005088513000E-05 6.02124589291000E-05 
6.12417068812000E-05 6.22885483906000E-05 6.33532841946000E-05 6.44362201712000E-05 
6.55376674269000E-05 6.66579423863000E-05 6.77973668827000E-05 6.89562682506000E-05 
7.01349794201000E-05 7.13338390119000E-05 7.25531914354000E-05 7.37933869867000E-05 
7.50547819502000E-05 7.63377387002000E-05 7.76426258053000E-05 7.89698181343000E-05 
8.03196969640000E-05 8.16926500883000E-05 8.30890719302000E-05 8.45093636546000E-05 
8.59539332839000E-05 8.74231958149000E-05 8.89175733384000E-05 9.04374951600000E-05 
9.19833979240000E-05 9.35557257382000E-05 9.51549303021000E-05 9.67814710361000E-05 
9.84358152139000E-05 1.00118438097000E-04 1.01829823069000E-04 1.03570461780000E-04 
1.05340854279000E-04 1.07141509168000E-04 1.08972943739000E-04 1.10835684128000E-04 
1.12730265465000E-04 1.14657232025000E-04 1.16617137389000E-04 1.18610544600000E-04 
1.20638026326000E-04 1.22700165022000E-04 1.24797553101000E-04 1.26930793102000E-04 
1.29100497864000E-04 1.31307290700000E-04 1.33551805581000E-04 1.35834687310000E-04 
1.38156591717000E-04 1.40518185839000E-04 1.42920148117000E-04 1.45363168588000E-04 
1.47847949084000E-04 1.50375203435000E-04 1.52945657672000E-04 1.55560050237000E-04 
1.58219132194000E-04 1.60923667446000E-04 1.63674432954000E-04 1.66472218959000E-04 
1.69317829211000E-04 1.72212081199000E-04 1.75155806386000E-04 1.78149850446000E-04 
1.81195073511000E-04 1.84292350415000E-04 1.87442570944000E-04 1.90646640097000E-04 
1.93905478340000E-04 1.97220021875000E-04 2.00591222907000E-04 2.04020049914000E-04 
2.07507487934000E-04 2.11054538840000E-04 2.14662221631000E-04 2.18331572725000E-04 
2.22063646254000E-04 2.25859514371000E-04 2.29720267557000E-04 2.33647014930000E-04 
2.37640884569000E-04 2.41703023836000E-04 2.45834599705000E-04 2.50036799097000E-04 
2.54310829222000E-04 2.58657917928000E-04 2.63079314049000E-04 2.67576287765000E-04 
2.72150130972000E-04 2.76802157644000E-04 2.81533704220000E-04 2.86346129982000E-04 
2.91240817445000E-04 2.96219172760000E-04 3.01282626111000E-04 3.06432632130000E-04 
3.11670670315000E-04 3.16998245452000E-04 3.22416888051000E-04 3.27928154783000E-04 
3.33533628928000E-04 3.39234920830000E-04 3.45033668361000E-04 3.50931537388000E-04 
3.56930222255000E-04 3.63031446267000E-04 3.69236962190000E-04 3.75548552746000E-04 
3.81968031135000E-04 3.88497241547000E-04 3.95138059700000E-04 4.01892393370000E-04 
4.08762182948000E-04 4.15749401992000E-04 4.22856057793000E-04 4.30084191958000E-04 
4.37435880988000E-04 4.44913236882000E-04 4.52518407739000E-04 4.60253578379000E-04 
4.68120970965000E-04 4.76122845648000E-04 4.84261501211000E-04 4.92539275732000E-04 
5.00958547256000E-04 5.09521734477000E-04 5.18231297432000E-04 5.27089738211000E-04 
5.36099601672000E-04 5.45263476175000E-04 5.54583994323000E-04 5.64063833721000E-04 
5.73705717744000E-04 5.83512416317000E-04 5.93486746716000E-04 6.03631574373000E-04 
6.13949813700000E-04 6.24444428929000E-04 6.35118434958000E-04 6.45974898224000E-04 
6.57016937578000E-04 6.68247725184000E-04 6.79670487431000E-04 6.91288505856000E-04 
7.03105118092000E-04 7.15123718823000E-04 7.27347760759000E-04 7.39780755633000E-04 
7.52426275203000E-04 7.65287952281000E-04 7.78369481779000E-04 7.91674621767000E-04 
8.05207194554000E-04 8.18971087787000E-04 8.32970255566000E-04 8.47208719580000E-04 
8.61690570265000E-04 8.76419967977000E-04 8.91401144186000E-04 9.06638402694000E-04 
9.22136120871000E-04 9.37898750912000E-04 9.53930821115000E-04 9.70236937183000E-04 
9.86821783548000E-04 1.00369012472000E-03 1.02084680663000E-03 1.03829675809000E-03 
1.05604499210000E-03 1.07409660741000E-03 1.09245678989000E-03 1.11113081407000E-03 
1.13012404463000E-03 1.14944193795000E-03 1.16909004371000E-03 1.18907400641000E-03 
1.20939956706000E-03 1.23007256480000E-03 1.25109893859000E-03 1.27248472890000E-03 
1.29423607944000E-03 1.31635923896000E-03 1.33886056302000E-03 1.36174651582000E-03 
1.38502367203000E-03 1.40869871875000E-03 1.43277845735000E-03 1.45726980547000E-03 
1.48217979901000E-03 1.50751559412000E-03 1.53328446930000E-03 1.55949382743000E-03 
1.58615119795000E-03 1.61326423903000E-03 1.64084073970000E-03 1.66888862217000E-03 
1.69741594404000E-03 1.72643090067000E-03 1.75594182748000E-03 1.78595720241000E-03 
1.81648564828000E-03 1.84753593532000E-03 1.87911698369000E-03 1.91123786601000E-03 
1.94390780998000E-03 1.97713620104000E-03 2.01093258508000E-03 2.04530667114000E-03 
2.08026833422000E-03 2.11582761815000E-03 2.15199473840000E-03 2.18878008510000E-03 
2.22619422597000E-03 2.26424790935000E-03 2.30295206735000E-03 2.34231781891000E-03 
2.38235647305000E-03 2.42307953211000E-03 2.46449869503000E-03 2.50662586073000E-03 
2.54947313154000E-03 2.59305281664000E-03 2.63737743564000E-03 2.68245972215000E-03 
2.72831262742000E-03 2.77494932411000E-03 2.82238321005000E-03 2.87062791207000E-03 
2.91969728994000E-03 2.96960544035000E-03 3.02036670093000E-03 3.07199565441000E-03 
3.12450713281000E-03 3.17791622164000E-03 3.23223826430000E-03 3.28748886648000E-03 
3.34368390059000E-03 3.40083951038000E-03 3.45897211555000E-03 3.51809841647000E-03 
3.57823539900000E-03 3.63940033931000E-03 3.70161080891000E-03 3.76488467967000E-03 