<UPF version="2.0.1">
  <PP_INFO>
Generated using Vanderbilt code, version   7  3  6
Author: kfg        Generation date:    1    4   15
Automatically converted from original USPP format to UPF.v1.

Futher converted to UPF.v2 format.
Convert Q_IJ to Q_IJL use the same routine as 'upflib/upf_to_internal.f90' of QE.
The conversion is done by using PseudoPotentialIO.jl package.
Converted by: JYU on 2024-04-30

1        The Pseudo was generated with a Scalar-Relativistic Calculation
1.30000000000E+00    Local Potential cutoff radius
nl pn  l   occ               Rcut            Rcut US             E pseu
3S  3  0  2.00      0.00000000000      1.30000000000     -1.52084930600
3P  3  1  5.00      0.00000000000      1.30000000000     -0.63173689000
</PP_INFO>
  <PP_HEADER element="Cl" pseudo_type="US" relativistic="scalar" is_ultrasoft="T" is_paw="F" is_coulomb="F" has_so="F" has_wfc="F" has_gipaw="F" core_correction="T" functional="PBE" z_valence="7.0" total_psenergy="-33.1582132012" wfc_cutoff="0.0" rho_cutoff="0.0" l_max="2" mesh_size="909" number_of_wfc="2" number_of_proj="6"/>
  <PP_MESH>
    <PP_R>
0.00000000000000E+00 9.01493505081000E-07 1.81813780785000E-06 2.75018753762000E-06 
3.69790160308000E-06 4.66154326424000E-06 5.64138020553000E-06 6.63768461018000E-06 
7.65073323582000E-06 8.68080749136000E-06 9.72819351516000E-06 1.07931822545000E-05 
1.18760695465000E-05 1.29771562001000E-05 1.40967480797000E-05 1.52351561904000E-05 
1.63926967639000E-05 1.75696913467000E-05 1.87664668894000E-05 1.99833558372000E-05 
2.12206962227000E-05 2.24788317595000E-05 2.37581119378000E-05 2.50588921215000E-05 
2.63815336467000E-05 2.77264039223000E-05 2.90938765321000E-05 3.04843313384000E-05 
3.18981545876000E-05 3.33357390174000E-05 3.47974839661000E-05 3.62837954833000E-05 
3.77950864429000E-05 3.93317766577000E-05 4.08942929960000E-05 4.24830695001000E-05 
4.40985475070000E-05 4.57411757711000E-05 4.74114105884000E-05 4.91097159239000E-05 
5.08365635400000E-05 5.25924331276000E-05 5.43778124397000E-05 5.61931974263000E-05 
5.80390923728000E-05 5.99160100396000E-05 6.18244718048000E-05 6.37650078090000E-05 
6.57381571024000E-05 6.77444677948000E-05 6.97844972074000E-05 7.18588120284000E-05 
7.39679884696000E-05 7.61126124269000E-05 7.82932796430000E-05 8.05105958728000E-05 
8.27651770517000E-05 8.50576494668000E-05 8.73886499307000E-05 8.97588259585000E-05 
9.21688359478000E-05 9.46193493611000E-05 9.71110469125000E-05 9.96446207561000E-05 
1.02220774679000E-04 1.04840224296000E-04 1.07503697248000E-04 1.10211933407000E-04 
1.12965685077000E-04 1.15765717208000E-04 1.18612807604000E-04 1.21507747141000E-04 
1.24451339989000E-04 1.27444403831000E-04 1.30487770093000E-04 1.33582284174000E-04 
1.36728805680000E-04 1.39928208667000E-04 1.43181381877000E-04 1.46489228992000E-04 
1.49852668877000E-04 1.53272635845000E-04 1.56750079907000E-04 1.60285967043000E-04 
1.63881279466000E-04 1.67537015898000E-04 1.71254191844000E-04 1.75033839878000E-04 
1.78877009925000E-04 1.82784769557000E-04 1.86758204289000E-04 1.90798417878000E-04 
1.94906532631000E-04 1.99083689718000E-04 2.03331049487000E-04 2.07649791787000E-04 
2.12041116298000E-04 2.16506242859000E-04 2.21046411812000E-04 2.25662884345000E-04 
2.30356942840000E-04 2.35129891233000E-04 2.39983055374000E-04 2.44917783395000E-04 
2.49935446085000E-04 2.55037437272000E-04 2.60225174209000E-04 2.65500097967000E-04 
2.70863673836000E-04 2.76317391733000E-04 2.81862766615000E-04 2.87501338899000E-04 
2.93234674892000E-04 2.99064367224000E-04 3.04992035292000E-04 3.11019325707000E-04 
3.17147912757000E-04 3.23379498865000E-04 3.29715815068000E-04 3.36158621495000E-04 
3.42709707855000E-04 3.49370893937000E-04 3.56144030113000E-04 3.63030997853000E-04 
3.70033710248000E-04 3.77154112542000E-04 3.84394182669000E-04 3.91755931806000E-04 
3.99241404932000E-04 4.06852681392000E-04 4.14591875480000E-04 4.22461137019000E-04 
4.30462651969000E-04 4.38598643022000E-04 4.46871370228000E-04 4.55283131622000E-04 
4.63836263856000E-04 4.72533142857000E-04 4.81376184479000E-04 4.90367845180000E-04 
4.99510622702000E-04 5.08807056764000E-04 5.18259729768000E-04 5.27871267517000E-04 
5.37644339946000E-04 5.47581661858000E-04 5.57685993686000E-04 5.67960142253000E-04 
5.78406961555000E-04 5.89029353554000E-04 5.99830268982000E-04 6.10812708163000E-04 
6.21979721845000E-04 6.33334412049000E-04 6.44879932928000E-04 6.56619491646000E-04 
6.68556349266000E-04 6.80693821658000E-04 6.93035280422000E-04 7.05584153819000E-04 
7.18343927729000E-04 7.31318146614000E-04 7.44510414509000E-04 7.57924396016000E-04 
7.71563817328000E-04 7.85432467261000E-04 7.99534198307000E-04 8.13872927704000E-04 
8.28452638525000E-04 8.43277380782000E-04 8.58351272556000E-04 8.73678501135000E-04 
8.89263324182000E-04 9.05110070913000E-04 9.21223143306000E-04 9.37607017317000E-04 
9.54266244128000E-04 9.71205451408000E-04 9.88429344603000E-04 1.00594270824000E-03 
1.02375040725000E-03 1.04185738833000E-03 1.06026868132000E-03 1.07898940058000E-03 
1.09802474643000E-03 1.11738000660000E-03 1.13706055766000E-03 1.15707186657000E-03 
1.17741949214000E-03 1.19810908664000E-03 1.21914639729000E-03 1.24053726794000E-03 
1.26228764062000E-03 1.28440355726000E-03 1.30689116130000E-03 1.32975669944000E-03 
1.35300652337000E-03 1.37664709152000E-03 1.40068497087000E-03 1.42512683876000E-03 
1.44997948476000E-03 1.47524981254000E-03 1.50094484180000E-03 1.52707171021000E-03 
1.55363767540000E-03 1.58065011697000E-03 1.60811653857000E-03 1.63604456992000E-03 
1.66444196900000E-03 1.69331662414000E-03 1.72267655628000E-03 1.75252992114000E-03 
1.78288501151000E-03 1.81375025956000E-03 1.84513423917000E-03 1.87704566830000E-03 
1.90949341146000E-03 1.94248648211000E-03 1.97603404520000E-03 2.01014541972000E-03 
2.04483008128000E-03 2.08009766471000E-03 2.11595796681000E-03 2.15242094898000E-03 
2.18949674009000E-03 2.22719563919000E-03 2.26552811844000E-03 2.30450482600000E-03 
2.34413658899000E-03 2.38443441648000E-03 2.42540950257000E-03 2.46707322950000E-03 
2.50943717079000E-03 2.55251309447000E-03 2.59631296635000E-03 2.64084895336000E-03 
2.68613342687000E-03 2.73217896621000E-03 2.77899836210000E-03 2.82660462022000E-03 
2.87501096484000E-03 2.92423084249000E-03 2.97427792566000E-03 3.02516611664000E-03 
3.07690955137000E-03 3.12952260337000E-03 3.18301988770000E-03 3.23741626506000E-03 
3.29272684591000E-03 3.34896699466000E-03 3.40615233393000E-03 3.46429874891000E-03 
3.52342239174000E-03 3.58353968606000E-03 3.64466733148000E-03 3.70682230830000E-03 
3.77002188220000E-03 3.83428360903000E-03 3.89962533966000E-03 3.96606522500000E-03 
4.03362172101000E-03 4.10231359382000E-03 4.17215992493000E-03 4.24318011655000E-03 
4.31539389699000E-03 4.38882132607000E-03 4.46348280079000E-03 4.53939906092000E-03 
4.61659119480000E-03 4.69508064518000E-03 4.77488921520000E-03 4.85603907441000E-03 
4.93855276497000E-03 5.02245320787000E-03 5.10776370934000E-03 5.19450796728000E-03 
5.28271007787000E-03 5.37239454228000E-03 5.46358627343000E-03 5.55631060294000E-03 
5.65059328817000E-03 5.74646051935000E-03 5.84393892690000E-03 5.94305558876000E-03 
6.04383803800000E-03 6.14631427037000E-03 6.25051275216000E-03 6.35646242806000E-03 
6.46419272922000E-03 6.57373358142000E-03 6.68511541336000E-03 6.79836916517000E-03 
6.91352629696000E-03 7.03061879754000E-03 7.14967919338000E-03 7.27074055756000E-03 
7.39383651903000E-03 7.51900127190000E-03 7.64626958495000E-03 7.77567681132000E-03 
7.90725889830000E-03 8.04105239730000E-03 8.17709447404000E-03 8.31542291888000E-03 
8.45607615726000E-03 8.59909326044000E-03 8.74451395630000E-03 8.89237864042000E-03 
9.04272838728000E-03 9.19560496165000E-03 9.35105083024000E-03 9.50910917346000E-03 
9.66982389741000E-03 9.83323964612000E-03 9.99940181388000E-03 1.01683565579000E-02 
1.03401508112000E-02 1.05148322955000E-02 1.06924495345000E-02 1.08730518676000E-02 
1.10566894631000E-02 1.12434133327000E-02 1.14332753453000E-02 1.16263282417000E-02 
1.18226256488000E-02 1.20222220950000E-02 1.22251730250000E-02 1.24315348154000E-02 
1.26413647902000E-02 1.28547212369000E-02 1.30716634225000E-02 1.32922516102000E-02 
1.35165470758000E-02 1.37446121252000E-02 1.39765101111000E-02 1.42123054512000E-02 
1.44520636457000E-02 1.46958512955000E-02 1.49437361212000E-02 1.51957869812000E-02 
1.54520738912000E-02 1.57126680437000E-02 1.59776418276000E-02 1.62470688484000E-02 
1.65210239488000E-02 1.67995832291000E-02 1.70828240687000E-02 1.73708251474000E-02 
1.76636664674000E-02 1.79614293754000E-02 1.82641965852000E-02 1.85720522008000E-02 
1.88850817395000E-02 1.92033721561000E-02 1.95270118666000E-02 1.98560907730000E-02 
2.01907002882000E-02 2.05309333615000E-02 2.08768845042000E-02 2.12286498161000E-02 
2.15863270121000E-02 2.19500154492000E-02 2.23198161543000E-02 2.26958318523000E-02 
2.30781669943000E-02 2.34669277870000E-02 2.38622222221000E-02 2.42641601060000E-02 
2.46728530908000E-02 2.50884147049000E-02 2.55109603848000E-02 2.59406075070000E-02 
2.63774754207000E-02 2.68216854809000E-02 2.72733610821000E-02 2.77326276927000E-02 
2.81996128897000E-02 2.86744463942000E-02 2.91572601074000E-02 2.96481881474000E-02 
3.01473668863000E-02 3.06549349880000E-02 3.11710334469000E-02 3.16958056269000E-02 
3.22293973017000E-02 3.27719566944000E-02 3.33236345195000E-02 3.38845840244000E-02 
3.44549610320000E-02 3.50349239841000E-02 3.56246339851000E-02 3.62242548473000E-02 
3.68339531357000E-02 3.74538982151000E-02 3.80842622962000E-02 3.87252204844000E-02 
3.93769508277000E-02 4.00396343664000E-02 4.07134551836000E-02 4.13986004561000E-02 
4.20952605064000E-02 4.28036288556000E-02 4.35239022774000E-02 4.42562808523000E-02 
4.50009680235000E-02 4.57581706533000E-02 4.65280990807000E-02 4.73109671796000E-02 
4.81069924184000E-02 4.89163959204000E-02 4.97394025250000E-02 5.05762408506000E-02 
5.14271433575000E-02 5.22923464131000E-02 5.31720903571000E-02 5.40666195685000E-02 
5.49761825333000E-02 5.59010319138000E-02 5.68414246186000E-02 5.77976218739000E-02 
5.87698892961000E-02 5.97584969659000E-02 6.07637195028000E-02 6.17858361418000E-02 
6.28251308107000E-02 6.38818922092000E-02 6.49564138888000E-02 6.60489943349000E-02 
6.71599370488000E-02 6.82895506331000E-02 6.94381488765000E-02 7.06060508414000E-02 
7.17935809526000E-02 7.30010690872000E-02 7.42288506664000E-02 7.54772667484000E-02 
7.67466641235000E-02 7.80373954103000E-02 7.93498191536000E-02 8.06842999238000E-02 
8.20412084189000E-02 8.34209215663000E-02 8.48238226288000E-02 8.62503013100000E-02 
8.77007538633000E-02 8.91755832013000E-02 9.06751990085000E-02 9.22000178544000E-02 
9.37504633096000E-02 9.53269660633000E-02 9.69299640432000E-02 9.85599025368000E-02 
1.00217234315000E-01 1.01902419759000E-01 1.03615926986000E-01 1.05358231982000E-01 
1.07129818731000E-01 1.08931179352000E-01 1.10762814235000E-01 1.12625232179000E-01 
1.14518950535000E-01 1.16444495346000E-01 1.18402401500000E-01 1.20393212872000E-01 
1.22417482477000E-01 1.24475772626000E-01 1.26568655080000E-01 1.28696711207000E-01 
1.30860532149000E-01 1.33060718980000E-01 1.35297882878000E-01 1.37572645292000E-01 
1.39885638114000E-01 1.42237503858000E-01 1.44628895835000E-01 1.47060478335000E-01 
1.49532926814000E-01 1.52046928079000E-01 1.54603180480000E-01 1.57202394104000E-01 
1.59845290970000E-01 1.62532605234000E-01 1.65265083390000E-01 1.68043484476000E-01 
1.70868580289000E-01 1.73741155596000E-01 1.76662008352000E-01 1.79631949924000E-01 
1.82651805316000E-01 1.85722413396000E-01 1.88844627129000E-01 1.92019313817000E-01 
1.95247355339000E-01 1.98529648394000E-01 2.01867104750000E-01 2.05260651500000E-01 
2.08711231318000E-01 2.12219802720000E-01 2.15787340333000E-01 2.19414835161000E-01 
2.23103294866000E-01 2.26853744043000E-01 2.30667224508000E-01 2.34544795586000E-01 
2.38487534405000E-01 2.42496536194000E-01 2.46572914593000E-01 2.50717801953000E-01 
2.54932349660000E-01 2.59217728448000E-01 2.63575128728000E-01 2.68005760916000E-01 
2.72510855773000E-01 2.77091664743000E-01 2.81749460301000E-01 2.86485536311000E-01 
2.91301208378000E-01 2.96197814222000E-01 3.01176714041000E-01 3.06239290895000E-01 
3.11386951088000E-01 3.16621124560000E-01 3.21943265280000E-01 3.27354851656000E-01 
3.32857386940000E-01 3.38452399649000E-01 3.44141443991000E-01 3.49926100292000E-01 
3.55807975438000E-01 3.61788703321000E-01 3.67869945292000E-01 3.74053390626000E-01 
3.80340756984000E-01 3.86733790899000E-01 3.93234268254000E-01 3.99843994779000E-01 
4.06564806551000E-01 4.13398570507000E-01 4.20347184958000E-01 4.27412580119000E-01 
4.34596718645000E-01 4.41901596177000E-01 4.49329241894000E-01 4.56881719079000E-01 
4.64561125691000E-01 4.72369594947000E-01 4.80309295918000E-01 4.88382434126000E-01 
4.96591252162000E-01 5.04938030307000E-01 5.13425087162000E-01 5.22054780299000E-01 
5.30829506910000E-01 5.39751704475000E-01 5.48823851441000E-01 5.58048467905000E-01 
5.67428116322000E-01 5.76965402209000E-01 5.86662974873000E-01 5.96523528148000E-01 
6.06549801139000E-01 6.16744578986000E-01 6.27110693638000E-01 6.37651024637000E-01 
6.48368499922000E-01 6.59266096637000E-01 6.70346841963000E-01 6.81613813956000E-01 
6.93070142403000E-01 7.04719009691000E-01 7.16563651690000E-01 7.28607358657000E-01 
7.40853476142000E-01 7.53305405923000E-01 7.65966606951000E-01 7.78840596305000E-01 
7.91930950179000E-01 8.05241304864000E-01 8.18775357768000E-01 8.32536868436000E-01 
8.46529659599000E-01 8.60757618234000E-01 8.75224696642000E-01 8.89934913549000E-01 
9.04892355222000E-01 9.20101176601000E-01 9.35565602458000E-01 9.51289928564000E-01 
9.67278522890000E-01 9.83535826815000E-01 1.00006635636000E+00 1.01687470345000E+00 
1.03396553717000E+00 1.05134360509000E+00 1.06901373456000E+00 1.08698083406000E+00 
1.10524989458000E+00 1.12382599096000E+00 1.14271428335000E+00 1.16192001863000E+00 
1.18144853184000E+00 1.20130524769000E+00 1.22149568207000E+00 1.24202544356000E+00 
1.26290023501000E+00 1.28412585510000E+00 1.30570819997000E+00 1.32765326486000E+00 
1.34996714576000E+00 1.37265604112000E+00 1.39572625354000E+00 1.41918419158000E+00 
1.44303637148000E+00 1.46728941899000E+00 1.49195007123000E+00 1.51702517854000E+00 
1.54252170639000E+00 1.56844673731000E+00 1.59480747286000E+00 1.62161123565000E+00 
1.64886547133000E+00 1.67657775069000E+00 1.70475577178000E+00 1.73340736201000E+00 
1.76254048032000E+00 1.79216321944000E+00 1.82228380811000E+00 1.85291061334000E+00 
1.88405214278000E+00 1.91571704705000E+00 1.94791412216000E+00 1.98065231195000E+00 
2.01394071058000E+00 2.04778856504000E+00 2.08220527772000E+00 2.11720040904000E+00 
2.15278368010000E+00 2.18896497537000E+00 2.22575434545000E+00 2.26316200983000E+00 
2.30119835978000E+00 2.33987396119000E+00 2.37919955754000E+00 2.41918607285000E+00 
2.45984461475000E+00 2.50118647754000E+00 2.54322314533000E+00 2.58596629525000E+00 
2.62942780067000E+00 2.67361973451000E+00 2.71855437258000E+00 2.76424419704000E+00 
2.81070189977000E+00 2.85794038601000E+00 2.90597277786000E+00 2.95481241795000E+00 
3.00447287317000E+00 3.05496793840000E+00 3.10631164039000E+00 3.15851824159000E+00 
3.21160224419000E+00 3.26557839407000E+00 3.32046168495000E+00 3.37626736256000E+00 
3.43301092882000E+00 3.49070814620000E+00 3.54937504208000E+00 3.60902791320000E+00 
3.66968333017000E+00 3.73135814213000E+00 3.79406948135000E+00 3.85783476805000E+00 
3.92267171523000E+00 3.98859833357000E+00 4.05563293644000E+00 4.12379414498000E+00 
4.19310089332000E+00 4.26357243377000E+00 4.33522834221000E+00 4.40808852353000E+00 
4.48217321712000E+00 4.55750300255000E+00 4.63409880524000E+00 4.71198190229000E+00 
4.79117392841000E+00 4.87169688188000E+00 4.95357313072000E+00 5.03682541884000E+00 
5.12147687242000E+00 5.20755100629000E+00 5.29507173050000E+00 5.38406335692000E+00 
5.47455060601000E+00 5.56655861370000E+00 5.66011293837000E+00 5.75523956793000E+00 
5.85196492706000E+00 5.95031588452000E+00 6.05031976067000E+00 6.15200433501000E+00 
6.25539785389000E+00 6.36052903842000E+00 6.46742709236000E+00 6.57612171032000E+00 
6.68664308594000E+00 6.79902192031000E+00 6.91328943050000E+00 7.02947735822000E+00 
7.14761797863000E+00 7.26774410935000E+00 7.38988911951000E+00 7.51408693906000E+00 
7.64037206821000E+00 7.76877958695000E+00 7.89934516488000E+00 8.03210507105000E+00 
8.16709618406000E+00 8.30435600232000E+00 8.44392265444000E+00 8.58583490982000E+00 
8.73013218945000E+00 8.87685457683000E+00 9.02604282914000E+00 9.17773838850000E+00 
9.33198339355000E+00 9.48882069111000E+00 9.64829384811000E+00 9.81044716368000E+00 
9.97532568145000E+00 1.01429752021000E+01 1.03134422959000E+01 1.04867743160000E+01 
1.06630194114000E+01 1.08422265400000E+01 1.10244454828000E+01 1.12097268575000E+01 
1.13981221321000E+01 1.15896836399000E+01 1.17844645937000E+01 1.19825191006000E+01 
1.21839021769000E+01 1.23886697638000E+01 1.25968787424000E+01 1.28085869499000E+01 
1.30238531954000E+01 1.32427372766000E+01 1.34652999960000E+01 1.36916031780000E+01 
1.39217096860000E+01 1.41556834400000E+01 1.43935894343000E+01 1.46354937552000E+01 
1.48814636001000E+01 1.51315672955000E+01 1.53858743162000E+01 1.56444553048000E+01 
1.59073820908000E+01 1.61747277113000E+01 1.64465664306000E+01 1.67229737613000E+01 
1.70040264849000E+01 1.72898026734000E+01 1.75803817109000E+01 1.78758443157000E+01 
1.81762725627000E+01 1.84817499061000E+01 1.87923612026000E+01 1.91081927352000E+01 
1.94293322369000E+01 1.97558689152000E+01 2.00878934767000E+01 2.04254981528000E+01 
2.07687767245000E+01 2.11178245493000E+01 2.14727385873000E+01 2.18336174277000E+01 
2.22005613173000E+01 2.25736721870000E+01 2.29530536813000E+01 2.33388111863000E+01 
2.37310518595000E+01 2.41298846589000E+01 2.45354203742000E+01 2.49477716566000E+01 
2.53670530510000E+01 2.57933810270000E+01 2.62268740118000E+01 2.66676524229000E+01 
2.71158387017000E+01 2.75715573471000E+01 2.80349349506000E+01 2.85061002312000E+01 
2.89851840713000E+01 2.94723195526000E+01 2.99676419937000E+01 3.04712889874000E+01 
3.09834004389000E+01 3.15041186047000E+01 3.20335881320000E+01 3.25719560991000E+01 
3.31193720561000E+01 3.36759880666000E+01 3.42419587496000E+01 3.48174413229000E+01 
3.54025956465000E+01 3.59975842669000E+01 3.66025724627000E+01 3.72177282900000E+01 
3.78432226294000E+01 3.84792292333000E+01 3.91259247743000E+01 3.97834888942000E+01 
4.04521042539000E+01 4.11319565843000E+01 4.18232347376000E+01 4.25261307399000E+01 
4.32408398447000E+01 4.39675605868000E+01 4.47064948378000E+01 4.54578478620000E+01 
4.62218283733000E+01 4.69986485935000E+01 4.77885243109000E+01 4.85916749407000E+01 
4.94083235852000E+01 5.02386970967000E+01 5.10830261398000E+01 5.19415452557000E+01 
5.28144929276000E+01 5.37021116464000E+01 5.46046479786000E+01 5.55223526347000E+01 
5.64554805384000E+01 5.74042908979000E+01 5.83690472778000E+01 5.93500176722000E+01 
6.03474745791000E+01 6.13616950764000E+01 6.23929608984000E+01 6.34415585145000E+01 
6.45077792086000E+01 6.55919191600000E+01 6.66942795255000E+01 6.78151665236000E+01 
6.89548915189000E+01 7.01137711090000E+01 7.12921272124000E+01 7.24902871578000E+01 
7.37085837750000E+01 7.49473554877000E+01 7.62069464071000E+01 7.74877064277000E+01 
7.87899913243000E+01 8.01141628511000E+01 8.14605888421000E+01 8.28296433131000E+01 
8.42217065659000E+01 8.56371652936000E+01 8.70764126884000E+01 8.85398485504000E+01 
9.00278793990000E+01 9.15409185856000E+01 9.30793864087000E+01 9.46437102303000E+01 
9.62343245949000E+01 9.78516713501000E+01 9.94961997691000E+01 1.01168366676000E+02 
1.02868636573000E+02 1.04597481767000E+02 1.06355382504000E+02 1.08142827103000E+02 
1.09960312085000E+02 1.11808342321000E+02 1.13687431164000E+02 1.15598100594000E+02 
1.17540881366000E+02 1.19516313154000E+02 1.21524944701000E+02 1.23567333973000E+02 
1.25644048314000E+02 1.27755664603000E+02 1.29902769412000E+02 1.32085959174000E+02 
1.34305840345000E+02 1.36563029572000E+02 1.38858153867000E+02 1.41191850780000E+02 
1.43564768573000E+02 1.45977566407000E+02 1.48430914519000E+02 1.50925494409000E+02 
1.53461999033000E+02 1.56041132992000E+02 1.58663612729000E+02 1.61330166726000E+02 
1.64041535711000E+02 1.66798472858000E+02 1.69601744003000E+02 1.72452127848000E+02 
1.75350416186000E+02 1.78297414115000E+02 1.81293940265000E+02 1.84340827024000E+02 
1.87438920768000E+02 1.90589082099000E+02 1.93792186082000E+02 1.97049122490000E+02 
2.00360796046000E+02 
</PP_R>
    <PP_RAB>
8.94001927014000E-07 9.09026818766000E-07 9.24304223812000E-07 9.39838385975000E-07 
9.55633620399000E-07 9.71694314752000E-07 9.88024930440000E-07 1.00463000385000E-06 
1.02151414761000E-06 1.03868205187000E-06 1.05613848560000E-06 1.07388829792000E-06 
1.09193641946000E-06 1.11028786368000E-06 1.12894772834000E-06 1.14792119685000E-06 
1.16721353975000E-06 1.18683011613000E-06 1.20677637517000E-06 1.22705785763000E-06 
1.24768019739000E-06 1.26864912301000E-06 1.28997045931000E-06 1.31165012904000E-06 
1.33369415446000E-06 1.35610865905000E-06 1.37889986922000E-06 1.40207411599000E-06 
1.42563783681000E-06 1.44959757730000E-06 1.47395999312000E-06 1.49873185174000E-06 
1.52392003440000E-06 1.54953153798000E-06 1.57557347695000E-06 1.60205308535000E-06 
1.62897771880000E-06 1.65635485653000E-06 1.68419210349000E-06 1.71249719241000E-06 
1.74127798601000E-06 1.77054247914000E-06 1.80029880101000E-06 1.83055521745000E-06 
1.86132013323000E-06 1.89260209434000E-06 1.92440979043000E-06 1.95675205716000E-06 
1.98963787872000E-06 2.02307639026000E-06 2.05707688047000E-06 2.09164879415000E-06 
2.12680173484000E-06 2.16254546746000E-06 2.19888992106000E-06 2.23584519156000E-06 
2.27342154454000E-06 2.31162941813000E-06 2.35047942586000E-06 2.38998235966000E-06 
2.43014919281000E-06 2.47099108303000E-06 2.51251937556000E-06 2.55474560628000E-06 
2.59768150499000E-06 2.64133899861000E-06 2.68573021448000E-06 2.73086748379000E-06 
2.77676334497000E-06 2.82343054715000E-06 2.87088205374000E-06 2.91913104604000E-06 
2.96819092684000E-06 3.01807532420000E-06 3.06879809523000E-06 3.12037332991000E-06 
3.17281535502000E-06 3.22613873813000E-06 3.28035829164000E-06 3.33548907687000E-06 
3.39154640830000E-06 3.44854585776000E-06 3.50650325879000E-06 3.56543471106000E-06 
3.62535658479000E-06 3.68628552532000E-06 3.74823845776000E-06 3.81123259164000E-06 
3.87528542576000E-06 3.94041475296000E-06 4.00663866516000E-06 4.07397555831000E-06 
4.14244413752000E-06 4.21206342231000E-06 4.28285275179000E-06 4.35483179013000E-06 
4.42802053197000E-06 4.50243930799000E-06 4.57810879054000E-06 4.65504999942000E-06 
4.73328430768000E-06 4.81283344756000E-06 4.89371951658000E-06 4.97596498359000E-06 
5.05959269510000E-06 5.14462588155000E-06 5.23108816383000E-06 5.31900355979000E-06 
5.40839649094000E-06 5.49929178923000E-06 5.59171470393000E-06 5.68569090867000E-06 
5.78124650855000E-06 5.87840804742000E-06 5.97720251521000E-06 6.07765735547000E-06 
6.17980047296000E-06 6.28366024143000E-06 6.38926551148000E-06 6.49664561859000E-06 
6.60583039126000E-06 6.71685015929000E-06 6.82973576222000E-06 6.94451855789000E-06 
7.06123043115000E-06 7.17990380271000E-06 7.30057163816000E-06 7.42326745712000E-06 
7.54802534255000E-06 7.67487995022000E-06 7.80386651834000E-06 7.93502087734000E-06 
8.06837945982000E-06 8.20397931071000E-06 8.34185809748000E-06 8.48205412071000E-06 
8.62460632461000E-06 8.76955430796000E-06 8.91693833500000E-06 9.06679934669000E-06 
9.21917897205000E-06 9.37411953975000E-06 9.53166408981000E-06 9.69185638564000E-06 
9.85474092611000E-06 1.00203629580000E-05 1.01887684884000E-05 1.03600042979000E-05 
1.05341179529000E-05 1.07111578196000E-05 1.08911730767000E-05 1.10742137297000E-05 
1.12603306244000E-05 1.14495754612000E-05 1.16420008092000E-05 1.18376601211000E-05 
1.20366077481000E-05 1.22388989547000E-05 1.24445899340000E-05 1.26537378240000E-05 
1.28664007225000E-05 1.30826377039000E-05 1.33025088355000E-05 1.35260751939000E-05 
1.37533988825000E-05 1.39845430480000E-05 1.42195718988000E-05 1.44585507221000E-05 
1.47015459024000E-05 1.49486249401000E-05 1.51998564696000E-05 1.54553102793000E-05 
1.57150573300000E-05 1.59791697756000E-05 1.62477209821000E-05 1.65207855490000E-05 
1.67984393291000E-05 1.70807594505000E-05 1.73678243371000E-05 1.76597137310000E-05 
1.79565087144000E-05 1.82582917325000E-05 1.85651466156000E-05 1.88771586033000E-05 
1.91944143676000E-05 1.95170020370000E-05 1.98450112214000E-05 2.01785330365000E-05 
2.05176601294000E-05 2.08624867043000E-05 2.12131085485000E-05 2.15696230593000E-05 
2.19321292708000E-05 2.23007278813000E-05 2.26755212820000E-05 2.30566135843000E-05 
2.34441106498000E-05 2.38381201190000E-05 2.42387514415000E-05 2.46461159064000E-05 
2.50603266730000E-05 2.54814988027000E-05 2.59097492903000E-05 2.63451970971000E-05 
2.67879631836000E-05 2.72381705433000E-05 2.76959442365000E-05 2.81614114257000E-05 
2.86347014103000E-05 2.91159456627000E-05 2.96052778650000E-05 3.01028339460000E-05 
3.06087521189000E-05 3.11231729197000E-05 3.16462392464000E-05 3.21780963987000E-05 
3.27188921180000E-05 3.32687766288000E-05 3.38279026803000E-05 3.43964255891000E-05 
3.49745032816000E-05 3.55622963389000E-05 3.61599680404000E-05 3.67676844101000E-05 
3.73856142618000E-05 3.80139292468000E-05 3.86528039010000E-05 3.93024156937000E-05 
3.99629450768000E-05 4.06345755350000E-05 4.13174936365000E-05 4.20118890853000E-05 
4.27179547735000E-05 4.34358868348000E-05 4.41658846996000E-05 4.49081511496000E-05 
4.56628923749000E-05 4.64303180305000E-05 4.72106412953000E-05 4.80040789306000E-05 
4.88108513410000E-05 4.96311826351000E-05 5.04653006879000E-05 5.13134372043000E-05 
5.21758277833000E-05 5.30527119832000E-05 5.39443333886000E-05 5.48509396780000E-05 
5.57727826923000E-05 5.67101185047000E-05 5.76632074926000E-05 5.86323144088000E-05 
5.96177084561000E-05 6.06196633613000E-05 6.16384574516000E-05 6.26743737321000E-05 
6.37276999638000E-05 6.47987287441000E-05 6.58877575880000E-05 6.69950890104000E-05 
6.81210306106000E-05 6.92658951573000E-05 7.04300006758000E-05 7.16136705363000E-05 
7.28172335435000E-05 7.40410240282000E-05 7.52853819402000E-05 7.65506529423000E-05 
7.78371885069000E-05 7.91453460133000E-05 8.04754888470000E-05 8.18279865005000E-05 
8.32032146765000E-05 8.46015553915000E-05 8.60233970826000E-05 8.74691347150000E-05 
8.89391698916000E-05 9.04339109651000E-05 9.19537731509000E-05 9.34991786427000E-05 
9.50705567298000E-05 9.66683439162000E-05 9.82929840420000E-05 9.99449284064000E-05 
1.01624635894000E-04 1.03332573100000E-04 1.05069214463000E-04 1.06835042395000E-04 
1.08630547414000E-04 1.10456228284000E-04 1.12312592150000E-04 1.14200154680000E-04 
1.16119440210000E-04 1.18070981886000E-04 1.20055321817000E-04 1.22073011220000E-04 
1.24124610578000E-04 1.26210689792000E-04 1.28331828343000E-04 1.30488615449000E-04 
1.32681650232000E-04 1.34911541882000E-04 1.37178909828000E-04 1.39484383908000E-04 
1.41828604548000E-04 1.44212222934000E-04 1.46635901199000E-04 1.49100312601000E-04 
1.51606141715000E-04 1.54154084621000E-04 1.56744849098000E-04 1.59379154818000E-04 
1.62057733551000E-04 1.64781329362000E-04 1.67550698825000E-04 1.70366611226000E-04 
1.73229848781000E-04 1.76141206852000E-04 1.79101494169000E-04 1.82111533053000E-04 
1.85172159645000E-04 1.88284224138000E-04 1.91448591015000E-04 1.94666139288000E-04 
1.97937762740000E-04 2.01264370176000E-04 2.04646885677000E-04 2.08086248850000E-04 
2.11583415097000E-04 2.15139355875000E-04 2.18755058969000E-04 2.22431528764000E-04 
2.26169786524000E-04 2.29970870680000E-04 2.33835837112000E-04 2.37765759447000E-04 
2.41761729355000E-04 2.45824856853000E-04 2.49956270614000E-04 2.54157118280000E-04 
2.58428566780000E-04 2.62771802655000E-04 2.67188032386000E-04 2.71678482734000E-04 
2.76244401073000E-04 2.80887055745000E-04 2.85607736405000E-04 2.90407754384000E-04 
2.95288443051000E-04 3.00251158184000E-04 3.05297278348000E-04 3.10428205274000E-04 
3.15645364253000E-04 3.20950204529000E-04 3.26344199704000E-04 3.31828848144000E-04 
3.37405673397000E-04 3.43076224619000E-04 3.48842076997000E-04 3.54704832196000E-04 
3.60666118796000E-04 3.66727592747000E-04 3.72890937833000E-04 3.79157866132000E-04 
3.85530118499000E-04 3.92009465044000E-04 3.98597705628000E-04 4.05296670360000E-04 
4.12108220107000E-04 4.19034247009000E-04 4.26076675007000E-04 4.33237460377000E-04 
4.40518592272000E-04 4.47922093275000E-04 4.55450019962000E-04 4.63104463472000E-04 
4.70887550088000E-04 4.78801441830000E-04 4.86848337050000E-04 4.95030471051000E-04 
5.03350116699000E-04 5.11809585060000E-04 5.20411226041000E-04 5.29157429043000E-04 
5.38050623622000E-04 5.47093280167000E-04 5.56287910585000E-04 5.65637069000000E-04 
5.75143352461000E-04 5.84809401662000E-04 5.94637901679000E-04 6.04631582715000E-04 
6.14793220856000E-04 6.25125638845000E-04 6.35631706864000E-04 6.46314343334000E-04 
6.57176515721000E-04 6.68221241367000E-04 6.79451588320000E-04 6.90870676195000E-04 
7.02481677033000E-04 7.14287816188000E-04 7.26292373217000E-04 7.38498682799000E-04 
7.50910135652000E-04 7.63530179482000E-04 7.76362319938000E-04 7.89410121586000E-04 
8.02677208900000E-04 8.16167267266000E-04 8.29884044010000E-04 8.43831349436000E-04 
8.58013057885000E-04 8.72433108812000E-04 8.87095507878000E-04 9.02004328068000E-04 
9.17163710815000E-04 9.32577867158000E-04 9.48251078904000E-04 9.64187699825000E-04 
9.80392156863000E-04 9.96868951359000E-04 1.01362266031000E-03 1.03065793762000E-03 
1.04797951544000E-03 1.06559220541000E-03 1.08350090007000E-03 1.10171057417000E-03 
1.12022628607000E-03 1.13905317915000E-03 1.15819648320000E-03 1.17766151595000E-03 
1.19745368447000E-03 1.21757848671000E-03 1.23804151303000E-03 1.25884844773000E-03 
1.28000507065000E-03 1.30151725877000E-03 1.32339098782000E-03 1.34563233399000E-03 
1.36824747557000E-03 1.39124269470000E-03 1.41462437907000E-03 1.43839902376000E-03 
1.46257323298000E-03 1.48715372195000E-03 1.51214731874000E-03 1.53756096617000E-03 