<UPF version="2.0.1">
  <PP_INFO>
Generated using Vanderbilt code, version   7  3  6
Author: kfg        Generation date:    3    2 2014
Automatically converted from original USPP format to UPF.v1.

Futher converted to UPF.v2 format.
Convert Q_IJ to Q_IJL use the same routine as 'upflib/upf_to_internal.f90' of QE.
The conversion is done by using PseudoPotentialIO.jl package.
Converted by: JYU on 2024-04-30

1        The Pseudo was generated with a Scalar-Relativistic Calculation
1.47000000000E+00    Local Potential cutoff radius
nl pn  l   occ               Rcut            Rcut US             E pseu
3S  3  0  2.00      0.00000000000      1.50000000000     -8.17468117500
3P  3  1  6.00      0.00000000000      1.50000000000     -5.47354762900
3D  3  2  7.00      0.00000000000      1.55000000000     -1.24649905300
4S  4  0  1.00      0.00000000000      1.50000000000     -0.93804157400
4P  4  1  0.00      0.00000000000      1.50000000000     -0.54885682200
</PP_INFO>
  <PP_HEADER element="Co" pseudo_type="US" relativistic="scalar" is_ultrasoft="T" is_paw="F" is_coulomb="F" has_so="F" has_wfc="F" has_gipaw="F" core_correction="T" functional="PBE" z_valence="17.0" total_psenergy="-297.215160275" wfc_cutoff="0.0" rho_cutoff="0.0" l_max="2" mesh_size="863" number_of_wfc="5" number_of_proj="6"/>
  <PP_MESH>
    <PP_R>
0.00000000000000E+00 1.56928922518000E-06 3.16540325955000E-06 4.78880063578000E-06 
6.43994772451000E-06 8.11931886837000E-06 9.82739651818000E-06 1.15646713716000E-05 
1.33316425141000E-05 1.51288175622000E-05 1.69567128096000E-05 1.88158533753000E-05 
2.07067733542000E-05 2.26300159713000E-05 2.45861337367000E-05 2.65756886054000E-05 
2.85992521379000E-05 3.06574056649000E-05 3.27507404540000E-05 3.48798578799000E-05 
3.70453695967000E-05 3.92478977141000E-05 4.14880749758000E-05 4.37665449414000E-05 
4.60839621712000E-05 4.84409924143000E-05 5.08383127999000E-05 5.32766120317000E-05 
5.57565905860000E-05 5.82789609126000E-05 6.08444476397000E-05 6.34537877820000E-05 
6.61077309523000E-05 6.88070395773000E-05 7.15524891160000E-05 7.43448682830000E-05 
7.71849792748000E-05 8.00736380003000E-05 8.30116743152000E-05 8.59999322606000E-05 
8.90392703051000E-05 9.21305615917000E-05 9.52746941887000E-05 9.84725713443000E-05 
1.01725111747000E-04 1.05033249789000E-04 1.08397935833000E-04 1.11820136490000E-04 
1.15300834890000E-04 1.18841030973000E-04 1.22441741766000E-04 1.26104001685000E-04 
1.29828862827000E-04 1.33617395271000E-04 1.37470687390000E-04 1.41389846161000E-04 
1.45375997480000E-04 1.49430286494000E-04 1.53553877920000E-04 1.57747956386000E-04 
1.62013726770000E-04 1.66352414546000E-04 1.70765266134000E-04 1.75253549262000E-04 
1.79818553325000E-04 1.84461589762000E-04 1.89183992427000E-04 1.93987117975000E-04 
1.98872346251000E-04 2.03841080687000E-04 2.08894748703000E-04 2.14034802121000E-04 
2.19262717578000E-04 2.24579996954000E-04 2.29988167801000E-04 2.35488783780000E-04 
2.41083425112000E-04 2.46773699031000E-04 2.52561240240000E-04 2.58447711389000E-04 
2.64434803547000E-04 2.70524236690000E-04 2.76717760195000E-04 2.83017153339000E-04 
2.89424225818000E-04 2.95940818259000E-04 3.02568802754000E-04 3.09310083393000E-04 
3.16166596816000E-04 3.23140312768000E-04 3.30233234660000E-04 3.37447400154000E-04 
3.44784881739000E-04 3.52247787331000E-04 3.59838260879000E-04 3.67558482978000E-04 
3.75410671501000E-04 3.83397082227000E-04 3.91520009499000E-04 3.99781786875000E-04 
4.08184787806000E-04 4.16731426311000E-04 4.25424157673000E-04 4.34265479146000E-04 
4.43257930670000E-04 4.52404095603000E-04 4.61706601462000E-04 4.71168120675000E-04 
4.80791371354000E-04 4.90579118074000E-04 5.00534172664000E-04 5.10659395018000E-04 
5.20957693918000E-04 5.31432027865000E-04 5.42085405933000E-04 5.52920888631000E-04 
5.63941588783000E-04 5.75150672424000E-04 5.86551359706000E-04 5.98146925827000E-04 
6.09940701967000E-04 6.21936076251000E-04 6.34136494717000E-04 6.46545462310000E-04 
6.59166543885000E-04 6.72003365237000E-04 6.85059614133000E-04 6.98339041384000E-04 
7.11845461910000E-04 7.25582755845000E-04 7.39554869649000E-04 7.53765817238000E-04 
7.68219681143000E-04 7.82920613679000E-04 7.97872838141000E-04 8.13080650012000E-04 
8.28548418202000E-04 8.44280586303000E-04 8.60281673862000E-04 8.76556277681000E-04 
8.93109073139000E-04 9.09944815535000E-04 9.27068341450000E-04 9.44484570143000E-04 
9.62198504959000E-04 9.80215234770000E-04 9.98539935432000E-04 1.01717787128000E-03 
1.03613439662000E-03 1.05541495732000E-03 1.07502509229000E-03 1.09497043514000E-03 
1.11525671580000E-03 1.13588976212000E-03 1.15687550156000E-03 1.17821996294000E-03 
1.19992927809000E-03 1.22200968368000E-03 1.24446752300000E-03 1.26730924773000E-03 
1.29054141987000E-03 1.31417071358000E-03 1.33820391707000E-03 1.36264793465000E-03 
1.38750978858000E-03 1.41279662122000E-03 1.43851569697000E-03 1.46467440442000E-03 
1.49128025847000E-03 1.51834090246000E-03 1.54586411040000E-03 1.57385778916000E-03 
1.60232998079000E-03 1.63128886481000E-03 1.66074276053000E-03 1.69070012949000E-03 
1.72116957786000E-03 1.75215985893000E-03 1.78367987561000E-03 1.81573868298000E-03 
1.84834549092000E-03 1.88150966674000E-03 1.91524073785000E-03 1.94954839456000E-03 
1.98444249277000E-03 2.01993305690000E-03 2.05603028268000E-03 2.09274454017000E-03 
2.13008637664000E-03 2.16806651970000E-03 2.20669588030000E-03 2.24598555590000E-03 
2.28594683368000E-03 2.32659119372000E-03 2.36793031238000E-03 2.40997606558000E-03 
2.45274053225000E-03 2.49623599780000E-03 2.54047495763000E-03 2.58547012073000E-03 
2.63123441335000E-03 2.67778098269000E-03 2.72512320067000E-03 2.77327466779000E-03 
2.82224921704000E-03 2.87206091786000E-03 2.92272408019000E-03 2.97425325857000E-03 
3.02666325634000E-03 3.07996912988000E-03 3.13418619294000E-03 3.18933002102000E-03 
3.24541645588000E-03 3.30246161007000E-03 3.36048187156000E-03 3.41949390845000E-03 
3.47951467374000E-03 3.54056141026000E-03 3.60265165554000E-03 3.66580324690000E-03 
3.73003432659000E-03 3.79536334694000E-03 3.86180907572000E-03 3.92939060151000E-03 
3.99812733915000E-03 4.06803903540000E-03 4.13914577452000E-03 4.21146798412000E-03 
4.28502644095000E-03 4.35984227694000E-03 4.43593698524000E-03 4.51333242637000E-03 
4.59205083456000E-03 4.67211482407000E-03 4.75354739574000E-03 4.83637194359000E-03 
4.92061226148000E-03 5.00629255004000E-03 5.09343742356000E-03 5.18207191707000E-03 
5.27222149355000E-03 5.36391205122000E-03 5.45716993101000E-03 5.55202192411000E-03 
5.64849527965000E-03 5.74661771256000E-03 5.84641741153000E-03 5.94792304706000E-03 
6.05116377978000E-03 6.15616926873000E-03 6.26296967997000E-03 6.37159569519000E-03 
6.48207852054000E-03 6.59444989560000E-03 6.70874210248000E-03 6.82498797514000E-03 
6.94322090875000E-03 7.06347486936000E-03 7.18578440360000E-03 7.31018464862000E-03 
7.43671134222000E-03 7.56540083307000E-03 7.69629009116000E-03 7.82941671845000E-03 
7.96481895963000E-03 8.10253571316000E-03 8.24260654240000E-03 8.38507168697000E-03 
8.52997207436000E-03 8.67734933166000E-03 8.82724579748000E-03 8.97970453419000E-03 
9.13476934023000E-03 9.29248476272000E-03 9.45289611024000E-03 9.61604946588000E-03 
9.78199170044000E-03 9.95077048590000E-03 1.01224343092000E-02 1.02970324859000E-02 
1.04746151748000E-02 1.06552333919000E-02 1.08389390254000E-02 1.10257848503000E-02 
1.12158245438000E-02 1.14091127006000E-02 1.16057048487000E-02 1.18056574653000E-02 
1.20090279927000E-02 1.22158748555000E-02 1.24262574768000E-02 1.26402362953000E-02 
1.28578727831000E-02 1.30792294630000E-02 1.33043699263000E-02 1.35333588517000E-02 
1.37662620231000E-02 1.40031463492000E-02 1.42440798823000E-02 1.44891318379000E-02 
1.47383726147000E-02 1.49918738147000E-02 1.52497082639000E-02 1.55119500332000E-02 
1.57786744596000E-02 1.60499581677000E-02 1.63258790923000E-02 1.66065165000000E-02 
1.68919510125000E-02 1.71822646296000E-02 1.74775407529000E-02 1.77778642094000E-02 
1.80833212763000E-02 1.83939997054000E-02 1.87099887487000E-02 1.90313791836000E-02 
1.93582633395000E-02 1.96907351239000E-02 2.00288900494000E-02 2.03728252614000E-02 
2.07226395659000E-02 2.10784334577000E-02 2.14403091496000E-02 2.18083706013000E-02 
2.21827235499000E-02 2.25634755397000E-02 2.29507359534000E-02 2.33446160434000E-02 
2.37452289638000E-02 2.41526898030000E-02 2.45671156166000E-02 2.49886254611000E-02 
2.54173404281000E-02 2.58533836792000E-02 2.62968804811000E-02 2.67479582418000E-02 
2.72067465474000E-02 2.76733771987000E-02 2.81479842498000E-02 2.86307040461000E-02 
2.91216752636000E-02 2.96210389488000E-02 3.01289385594000E-02 3.06455200049000E-02 
3.11709316893000E-02 3.17053245532000E-02 3.22488521173000E-02 3.28016705265000E-02 
3.33639385949000E-02 3.39358178513000E-02 3.45174725854000E-02 3.51090698954000E-02 
3.57107797358000E-02 3.63227749662000E-02 3.69452314009000E-02 3.75783278596000E-02 
3.82222462188000E-02 3.88771714636000E-02 3.95432917415000E-02 4.02207984159000E-02 
4.09098861214000E-02 4.16107528194000E-02 4.23235998556000E-02 4.30486320170000E-02 
4.37860575913000E-02 4.45360884266000E-02 4.52989399923000E-02 4.60748314409000E-02 
4.68639856709000E-02 4.76666293912000E-02 4.84829931856000E-02 4.93133115799000E-02 
5.01578231082000E-02 5.10167703825000E-02 5.18904001618000E-02 5.27789634228000E-02 
5.36827154327000E-02 5.46019158219000E-02 5.55368286589000E-02 5.64877225261000E-02 
5.74548705969000E-02 5.84385507142000E-02 5.94390454703000E-02 6.04566422879000E-02 
6.14916335029000E-02 6.25443164483000E-02 6.36149935395000E-02 6.47039723613000E-02 
6.58115657563000E-02 6.69380919146000E-02 6.80838744654000E-02 6.92492425699000E-02 
7.04345310157000E-02 7.16400803132000E-02 7.28662367935000E-02 7.41133527076000E-02 
7.53817863278000E-02 7.66719020504000E-02 7.79840705009000E-02 7.93186686397000E-02 
8.06760798711000E-02 8.20566941531000E-02 8.34609081094000E-02 8.48891251436000E-02 
8.63417555547000E-02 8.78192166554000E-02 8.93219328917000E-02 9.08503359648000E-02 
9.24048649554000E-02 9.39859664496000E-02 9.55940946671000E-02 9.72297115923000E-02 
9.88932871061000E-02 1.00585299122000E-01 1.02306233721000E-01 1.04056585296000E-01 
1.05836856688000E-01 1.07647559335000E-01 1.09489213416000E-01 1.11362348004000E-01 
1.13267501214000E-01 1.15205220359000E-01 1.17176062108000E-01 1.19180592647000E-01 
1.21219387837000E-01 1.23293033386000E-01 1.25402125011000E-01 1.27547268615000E-01 
1.29729080454000E-01 1.31948187322000E-01 1.34205226725000E-01 1.36500847067000E-01 
1.38835707834000E-01 1.41210479788000E-01 1.43625845153000E-01 1.46082497819000E-01 
1.48581143534000E-01 1.51122500110000E-01 1.53707297630000E-01 1.56336278656000E-01 
1.59010198444000E-01 1.61729825159000E-01 1.64495940097000E-01 1.67309337910000E-01 
1.70170826831000E-01 1.73081228912000E-01 1.76041380255000E-01 1.79052131254000E-01 
1.82114346840000E-01 1.85228906727000E-01 1.88396705669000E-01 1.91618653712000E-01 
1.94895676461000E-01 1.98228715340000E-01 2.01618727868000E-01 2.05066687928000E-01 
2.08573586053000E-01 2.12140429708000E-01 2.15768243577000E-01 2.19458069861000E-01 
2.23210968576000E-01 2.27028017857000E-01 2.30910314268000E-01 2.34858973118000E-01 
2.38875128780000E-01 2.42959935019000E-01 2.47114565319000E-01 2.51340213226000E-01 
2.55638092686000E-01 2.60009438398000E-01 2.64455506164000E-01 2.68977573253000E-01 
2.73576938769000E-01 2.78254924018000E-01 2.83012872897000E-01 2.87852152272000E-01 
2.92774152374000E-01 2.97780287199000E-01 3.02871994911000E-01 3.08050738261000E-01 
3.13318005001000E-01 3.18675308315000E-01 3.24124187252000E-01 3.29666207171000E-01 
3.35302960185000E-01 3.41036065625000E-01 3.46867170502000E-01 3.52797949978000E-01 
3.58830107853000E-01 3.64965377047000E-01 3.71205520107000E-01 3.77552329703000E-01 
3.84007629151000E-01 3.90573272934000E-01 3.97251147235000E-01 4.04043170477000E-01 
4.10951293877000E-01 4.17977502006000E-01 4.25123813357000E-01 4.32392280927000E-01 
4.39784992806000E-01 4.47304072778000E-01 4.54951680927000E-01 4.62730014265000E-01 
4.70641307356000E-01 4.78687832961000E-01 4.86871902692000E-01 4.95195867672000E-01 
5.03662119217000E-01 5.12273089517000E-01 5.21031252336000E-01 5.29939123726000E-01 
5.38999262745000E-01 5.48214272196000E-01 5.57586799373000E-01 5.67119536822000E-01 
5.76815223114000E-01 5.86676643631000E-01 5.96706631369000E-01 6.06908067750000E-01 
6.17283883448000E-01 6.27837059235000E-01 6.38570626834000E-01 6.49487669791000E-01 
6.60591324361000E-01 6.71884780410000E-01 6.83371282329000E-01 6.95054129968000E-01 
7.06936679582000E-01 7.19022344798000E-01 7.31314597594000E-01 7.43816969297000E-01 
7.56533051595000E-01 7.69466497573000E-01 7.82621022761000E-01 7.96000406198000E-01 
8.09608491522000E-01 8.23449188073000E-01 8.37526472016000E-01 8.51844387481000E-01 
8.66407047728000E-01 8.81218636329000E-01 8.96283408365000E-01 9.11605691655000E-01 
9.27189887994000E-01 9.43040474420000E-01 9.59162004499000E-01 9.75559109636000E-01 
9.92236500401000E-01 1.00919896789000E+00 1.02645138508000E+00 1.04399870827000E+00 
1.06184597846000E+00 1.07999832282000E+00 1.09846095618000E+00 1.11723918248000E+00 
1.13633839636000E+00 1.15576408465000E+00 1.17552182797000E+00 1.19561730233000E+00 
1.21605628078000E+00 1.23684463505000E+00 1.25798833722000E+00 1.27949346146000E+00 
1.30136618580000E+00 1.32361279383000E+00 1.34623967658000E+00 1.36925333431000E+00 
1.39266037840000E+00 1.41646753324000E+00 1.44068163817000E+00 1.46530964943000E+00 
1.49035864217000E+00 1.51583581248000E+00 1.54174847946000E+00 1.56810408732000E+00 
1.59491020752000E+00 1.62217454093000E+00 1.64990492007000E+00 1.67810931133000E+00 
1.70679581731000E+00 1.73597267907000E+00 1.76564827856000E+00 1.79583114101000E+00 
1.82652993736000E+00 1.85775348680000E+00 1.88951075924000E+00 1.92181087793000E+00 
1.95466312208000E+00 1.98807692948000E+00 2.02206189930000E+00 2.05662779474000E+00 
2.09178454592000E+00 2.12754225270000E+00 2.16391118757000E+00 2.20090179863000E+00 
2.23852471255000E+00 2.27679073769000E+00 2.31571086712000E+00 2.35529628184000E+00 
2.39555835399000E+00 2.43650865007000E+00 2.47815893430000E+00 2.52052117202000E+00 
2.56360753307000E+00 2.60743039534000E+00 2.65200234827000E+00 2.69733619653000E+00 
2.74344496366000E+00 2.79034189581000E+00 2.83804046557000E+00 2.88655437581000E+00 
2.93589756364000E+00 2.98608420440000E+00 3.03712871575000E+00 3.08904576177000E+00 
3.14185025725000E+00 3.19555737188000E+00 3.25018253467000E+00 3.30574143839000E+00 
3.36225004404000E+00 3.41972458543000E+00 3.47818157389000E+00 3.53763780299000E+00 
3.59811035334000E+00 3.65961659755000E+00 3.72217420516000E+00 3.78580114777000E+00 
3.85051570417000E+00 3.91633646559000E+00 3.98328234106000E+00 4.05137256285000E+00 
4.12062669195000E+00 4.19106462374000E+00 4.26270659366000E+00 4.33557318308000E+00 
4.40968532515000E+00 4.48506431086000E+00 4.56173179512000E+00 4.63970980303000E+00 
4.71902073616000E+00 4.79968737901000E+00 4.88173290553000E+00 4.96518088583000E+00 
5.05005529289000E+00 5.13638050948000E+00 5.22418133518000E+00 5.31348299346000E+00 
5.40431113895000E+00 5.49669186483000E+00 5.59065171029000E+00 5.68621766818000E+00 
5.78341719274000E+00 5.88227820753000E+00 5.98282911339000E+00 6.08509879665000E+00 
6.18911663742000E+00 6.29491251801000E+00 6.40251683153000E+00 6.51196049062000E+00 
6.62327493631000E+00 6.73649214711000E+00 6.85164464811000E+00 6.96876552041000E+00 
7.08788841057000E+00 7.20904754028000E+00 7.33227771623000E+00 7.45761434005000E+00 
7.58509341853000E+00 7.71475157395000E+00 7.84662605459000E+00 7.98075474542000E+00 
8.11717617904000E+00 8.25592954666000E+00 8.39705470947000E+00 8.54059220997000E+00 
8.68658328372000E+00 8.83506987113000E+00 8.98609462953000E+00 9.13970094539000E+00 
9.29593294685000E+00 9.45483551634000E+00 9.61645430348000E+00 9.78083573824000E+00 
9.94802704420000E+00 1.01180762522000E+01 1.02910322141000E+01 1.04669446168000E+01 
1.06458639965000E+01 1.08278417533000E+01 1.10129301659000E+01 1.12011824066000E+01 
1.13926525566000E+01 1.15873956216000E+01 1.17854675475000E+01 1.19869252365000E+01 
1.21918265636000E+01 1.24002303929000E+01 1.26121965949000E+01 1.28277860632000E+01 
1.30470607326000E+01 1.32700835965000E+01 1.34969187249000E+01 1.37276312833000E+01 
1.39622875509000E+01 1.42009549400000E+01 1.44437020149000E+01 1.46905985123000E+01 
1.49417153608000E+01 1.51971247013000E+01 1.54568999080000E+01 1.57211156094000E+01 
1.59898477094000E+01 1.62631734096000E+01 1.65411712313000E+01 1.68239210377000E+01 
1.71115040574000E+01 1.74040029075000E+01 1.77015016172000E+01 1.80040856522000E+01 
1.83118419390000E+01 1.86248588900000E+01 1.89432264289000E+01 1.92670360165000E+01 
1.95963806772000E+01 1.99313550252000E+01 2.02720552922000E+01 2.06185793547000E+01 
2.09710267625000E+01 2.13294987669000E+01 2.16940983498000E+01 2.20649302538000E+01 
2.24421010117000E+01 2.28257189773000E+01 2.32158943566000E+01 2.36127392395000E+01 
2.40163676318000E+01 2.44268954882000E+01 2.48444407454000E+01 2.52691233560000E+01 
2.57010653231000E+01 2.61403907353000E+01 2.65872258023000E+01 2.70416988912000E+01 
2.75039405633000E+01 2.79740836117000E+01 2.84522630993000E+01 2.89386163979000E+01 
2.94332832274000E+01 2.99364056959000E+01 3.04481283409000E+01 3.09685981704000E+01 
3.14979647052000E+01 3.20363800222000E+01 3.25839987975000E+01 3.31409783516000E+01 
3.37074786938000E+01 3.42836625687000E+01 3.48696955029000E+01 3.54657458522000E+01 
3.60719848503000E+01 3.66885866581000E+01 3.73157284132000E+01 3.79535902814000E+01 
3.86023555080000E+01 3.92622104707000E+01 3.99333447331000E+01 4.06159510991000E+01 
4.13102256683000E+01 4.20163678923000E+01 4.27345806320000E+01 4.34650702163000E+01 
4.42080465005000E+01 4.49637229273000E+01 4.57323165881000E+01 4.65140482848000E+01 
4.73091425939000E+01 4.81178279305000E+01 4.89403366144000E+01 4.97769049363000E+01 
5.06277732262000E+01 5.14931859220000E+01 5.23733916400000E+01 5.32686432464000E+01 
5.41791979295000E+01 5.51053172742000E+01 5.60472673365000E+01 5.70053187206000E+01 
5.79797466560000E+01 5.89708310771000E+01 5.99788567032000E+01 6.10041131205000E+01 
6.20468948654000E+01 6.31075015089000E+01 6.41862377428000E+01 6.52834134671000E+01 
6.63993438792000E+01 6.75343495643000E+01 6.86887565876000E+01 6.98628965877000E+01 
7.10571068726000E+01 7.22717305156000E+01 7.35071164547000E+01 7.47636195922000E+01 
7.60416008973000E+01 7.73414275092000E+01 7.86634728431000E+01 8.00081166968000E+01 
8.13757453606000E+01 8.27667517277000E+01 8.41815354074000E+01 8.56205028396000E+01 
8.70840674118000E+01 8.85726495778000E+01 9.00866769784000E+01 9.16265845645000E+01 
9.31928147216000E+01 9.47858173974000E+01 9.64060502307000E+01 9.80539786831000E+01 
9.97300761725000E+01 1.01434824209000E+02 1.03168712535000E+02 1.04932239261000E+02 
1.06725911016000E+02 1.08550243086000E+02 1.10405759566000E+02 1.12292993512000E+02 
1.14212487087000E+02 1.16164791727000E+02 1.18150468290000E+02 1.20170087222000E+02 
1.22224228721000E+02 1.24313482903000E+02 1.26438449969000E+02 1.28599740381000E+02 
1.30797975036000E+02 1.33033785446000E+02 1.35307813913000E+02 1.37620713724000E+02 
1.39973149329000E+02 1.42365796538000E+02 1.44799342711000E+02 1.47274486960000E+02 
1.49791940346000E+02 1.52352426084000E+02 1.54956679752000E+02 1.57605449502000E+02 
1.60299496274000E+02 1.63039594016000E+02 1.65826529905000E+02 1.68661104573000E+02 
1.71544132339000E+02 1.74476441441000E+02 1.77458874275000E+02 1.80492287636000E+02 
1.83577552965000E+02 1.86715556599000E+02 1.89907200026000E+02 1.93153400143000E+02 
1.96455089520000E+02 1.99813216669000E+02 2.03228746315000E+02 
</PP_R>
    <PP_RAB>
1.55602773174000E-06 1.58262585420000E-06 1.60967863445000E-06 1.63719384421000E-06 
1.66517938809000E-06 1.69364330578000E-06 1.72259377442000E-06 1.75203911092000E-06 
1.78198777435000E-06 1.81244836839000E-06 1.84342964377000E-06 1.87494050082000E-06 
1.90698999198000E-06 1.93958732448000E-06 1.97274186287000E-06 2.00646313183000E-06 
2.04076081883000E-06 2.07564477691000E-06 2.11112502757000E-06 2.14721176361000E-06 
2.18391535203000E-06 2.22124633707000E-06 2.25921544320000E-06 2.29783357821000E-06 
2.33711183634000E-06 2.37706150148000E-06 2.41769405038000E-06 2.45902115601000E-06 
2.50105469083000E-06 2.54380673026000E-06 2.58728955614000E-06 2.63151566025000E-06 
2.67649774788000E-06 2.72224874153000E-06 2.76878178456000E-06 2.81611024501000E-06 
2.86424771945000E-06 2.91320803683000E-06 2.96300526251000E-06 3.01365370226000E-06 
3.06516790641000E-06 3.11756267398000E-06 3.17085305697000E-06 3.22505436470000E-06 
3.28018216813000E-06 3.33625230443000E-06 3.39328088146000E-06 3.45128428242000E-06 
3.51027917056000E-06 3.57028249399000E-06 3.63131149049000E-06 3.69338369251000E-06 
3.75651693220000E-06 3.82072934651000E-06 3.88603938243000E-06 3.95246580226000E-06 
4.02002768904000E-06 4.08874445197000E-06 4.15863583207000E-06 4.22972190777000E-06 
4.30202310073000E-06 4.37556018168000E-06 4.45035427639000E-06 4.52642687177000E-06 
4.60379982200000E-06 4.68249535483000E-06 4.76253607797000E-06 4.84394498556000E-06 
4.92674546482000E-06 5.01096130270000E-06 5.09661669281000E-06 5.18373624226000E-06 
5.27234497883000E-06 5.36246835809000E-06 5.45413227074000E-06 5.54736305005000E-06 
5.64218747941000E-06 5.73863280006000E-06 5.83672671886000E-06 5.93649741631000E-06 
6.03797355458000E-06 6.14118428582000E-06 6.24615926046000E-06 6.35292863580000E-06 
6.46152308459000E-06 6.57197380393000E-06 6.68431252418000E-06 6.79857151806000E-06 
6.91478360998000E-06 7.03298218543000E-06 7.15320120056000E-06 7.27547519198000E-06 
7.39983928664000E-06 7.52632921193000E-06 7.65498130596000E-06 7.78583252799000E-06 
7.91892046904000E-06 8.05428336271000E-06 8.19196009612000E-06 8.33199022116000E-06 
8.47441396575000E-06 8.61927224549000E-06 8.76660667535000E-06 8.91645958167000E-06 
9.06887401429000E-06 9.22389375892000E-06 9.38156334974000E-06 9.54192808216000E-06 
9.70503402588000E-06 9.87092803808000E-06 1.00396577769000E-05 1.02112717151000E-05 
1.03858191541000E-05 1.05633502379000E-05 1.07439159679000E-05 1.09275682170000E-05 
1.11143597450000E-05 1.13043442135000E-05 1.14975762013000E-05 1.16941112203000E-05 
1.18940057312000E-05 1.20973171597000E-05 1.23041039134000E-05 1.25144253980000E-05 
1.27283420349000E-05 1.29459152781000E-05 1.31672076323000E-05 1.33922826705000E-05 
1.36212050523000E-05 1.38540405427000E-05 1.40908560309000E-05 1.43317195493000E-05 
1.45767002935000E-05 1.48258686416000E-05 1.50792961748000E-05 1.53370556980000E-05 
1.55992212606000E-05 1.58658681776000E-05 1.61370730514000E-05 1.64129137941000E-05 
1.66934696494000E-05 1.69788212154000E-05 1.72690504682000E-05 1.75642407850000E-05 
1.78644769683000E-05 1.81698452702000E-05 1.84804334170000E-05 1.87963306347000E-05 
1.91176276745000E-05 1.94444168388000E-05 1.97767920078000E-05 2.01148486664000E-05 
2.04586839318000E-05 2.08083965812000E-05 2.11640870803000E-05 2.15258576120000E-05 
2.18938121061000E-05 2.22680562688000E-05 2.26486976131000E-05 2.30358454899000E-05 
2.34296111194000E-05 2.38301076229000E-05 2.42374500550000E-05 2.46517554376000E-05 
2.50731427925000E-05 2.55017331761000E-05 2.59376497142000E-05 2.63810176371000E-05 
2.68319643159000E-05 2.72906192989000E-05 2.77571143486000E-05 2.82315834802000E-05 
2.87141629994000E-05 2.92049915420000E-05 2.97042101135000E-05 3.02119621298000E-05 
3.07283934582000E-05 3.12536524594000E-05 3.17878900302000E-05 3.23312596467000E-05 
3.28839174084000E-05 3.34460220832000E-05 3.40177351530000E-05 3.45992208598000E-05 
3.51906462533000E-05 3.57921812385000E-05 3.64039986247000E-05 3.70262741752000E-05 
3.76591866579000E-05 3.83029178961000E-05 3.89576528215000E-05 3.96235795267000E-05 
4.03008893195000E-05 4.09897767779000E-05 4.16904398060000E-05 4.24030796908000E-05 
4.31279011598000E-05 4.38651124402000E-05 4.46149253187000E-05 4.53775552018000E-05 
4.61532211784000E-05 4.69421460824000E-05 4.77445565566000E-05 4.85606831180000E-05 
4.93907602239000E-05 5.02350263395000E-05 5.10937240061000E-05 5.19670999109000E-05 
5.28554049579000E-05 5.37588943399000E-05 5.46778276120000E-05 5.56124687660000E-05 
5.65630863060000E-05 5.75299533262000E-05 5.85133475887000E-05 5.95135516037000E-05 
6.05308527105000E-05 6.15655431599000E-05 6.26179201985000E-05 6.36882861539000E-05 
6.47769485214000E-05 6.58842200528000E-05 6.70104188457000E-05 6.81558684352000E-05 
6.93208978869000E-05 7.05058418911000E-05 7.17110408593000E-05 7.29368410219000E-05 
7.41835945275000E-05 7.54516595443000E-05 7.67414003629000E-05 7.80531875007000E-05 
7.93873978090000E-05 8.07444145804000E-05 8.21246276596000E-05 8.35284335552000E-05 
8.49562355534000E-05 8.64084438341000E-05 8.78854755887000E-05 8.93877551397000E-05 
9.09157140631000E-05 9.24697913118000E-05 9.40504333422000E-05 9.56580942421000E-05 
9.72932358614000E-05 9.89563279447000E-05 1.00647848266000E-04 1.02368282767000E-04 
1.04118125694000E-04 1.05897879744000E-04 1.07708056206000E-04 1.09549175108000E-04 
1.11421765368000E-04 1.13326364945000E-04 1.15263520994000E-04 1.17233790022000E-04 
1.19237738050000E-04 1.21275940772000E-04 1.23348983725000E-04 1.25457462454000E-04 
1.27601982685000E-04 1.29783160496000E-04 1.32001622497000E-04 1.34258006010000E-04 
1.36552959251000E-04 1.38887141514000E-04 1.41261223366000E-04 1.43675886833000E-04 
1.46131825602000E-04 1.48629745217000E-04 1.51170363282000E-04 1.53754409667000E-04 
1.56382626719000E-04 1.59055769473000E-04 1.61774605871000E-04 1.64539916984000E-04 
1.67352497231000E-04 1.70213154611000E-04 1.73122710938000E-04 1.76082002069000E-04 
1.79091878152000E-04 1.82153203866000E-04 1.85266858670000E-04 1.88433737058000E-04 
1.91654748813000E-04 1.94930819268000E-04 1.98262889575000E-04 2.01651916974000E-04 
2.05098875066000E-04 2.08604754097000E-04 2.12170561237000E-04 2.15797320873000E-04 
2.19486074903000E-04 2.23237883036000E-04 2.27053823093000E-04 2.30934991319000E-04 
2.34882502700000E-04 2.38897491278000E-04 2.42981110483000E-04 2.47134533459000E-04 
2.51358953404000E-04 2.55655583913000E-04 2.60025659323000E-04 2.64470435074000E-04 
2.68991188063000E-04 2.73589217015000E-04 2.78265842855000E-04 2.83022409087000E-04 
2.87860282181000E-04 2.92780851963000E-04 2.97785532018000E-04 3.02875760095000E-04 
3.08052998516000E-04 3.13318734603000E-04 3.18674481099000E-04 3.24121776607000E-04 
3.29662186029000E-04 3.35297301018000E-04 3.41028740434000E-04 3.46858150807000E-04 
3.52787206815000E-04 3.58817611761000E-04 3.64951098063000E-04 3.71189427754000E-04 
3.77534392985000E-04 3.83987816541000E-04 3.90551552366000E-04 3.97227486094000E-04 
4.04017535593000E-04 4.10923651512000E-04 4.17947817844000E-04 4.25092052496000E-04 
4.32358407869000E-04 4.39748971447000E-04 4.47265866394000E-04 4.54911252169000E-04 
4.62687325145000E-04 4.70596319236000E-04 4.78640506542000E-04 4.86822198004000E-04 
4.95143744064000E-04 5.03607535339000E-04 5.12216003314000E-04 5.20971621035000E-04 
5.29876903822000E-04 5.38934409989000E-04 5.48146741584000E-04 5.57516545130000E-04 
5.67046512392000E-04 5.76739381143000E-04 5.86597935958000E-04 5.96625009010000E-04 
6.06823480881000E-04 6.17196281395000E-04 6.27746390458000E-04 6.38476838912000E-04 
6.49390709406000E-04 6.60491137285000E-04 6.71781311486000E-04 6.83264475459000E-04 
6.94943928094000E-04 7.06823024671000E-04 7.18905177826000E-04 7.31193858528000E-04 
7.43692597075000E-04 7.56404984115000E-04 7.69334671669000E-04 7.82485374187000E-04 
7.95860869612000E-04 8.09465000464000E-04 8.23301674946000E-04 8.37374868068000E-04 
8.51688622786000E-04 8.66247051165000E-04 8.81054335558000E-04 8.96114729813000E-04 
9.11432560489000E-04 9.27012228103000E-04 9.42858208392000E-04 9.58975053599000E-04 
9.75367393781000E-04 9.92039938142000E-04 1.00899747638000E-03 1.02624488007000E-03 
1.04378710405000E-03 1.06162918787000E-03 1.07977625721000E-03 1.09823352538000E-03 
1.11700629479000E-03 1.13609995849000E-03 1.15552000172000E-03 1.17527200349000E-03 
1.19536163817000E-03 1.21579467711000E-03 1.23657699033000E-03 1.25771454820000E-03 
1.27921342312000E-03 1.30107979130000E-03 1.32331993453000E-03 1.34594024196000E-03 
1.36894721199000E-03 1.39234745406000E-03 1.41614769060000E-03 1.44035475898000E-03 
1.46497561341000E-03 1.49001732698000E-03 1.51548709369000E-03 1.54139223053000E-03 
1.56774017952000E-03 1.59453850993000E-03 1.62179492040000E-03 1.64951724116000E-03 
1.67771343631000E-03 1.70639160606000E-03 1.73555998911000E-03 1.76522696495000E-03 
1.79540105634000E-03 1.82609093171000E-03 1.85730540767000E-03 1.88905345154000E-03 
1.92134418390000E-03 1.95418688127000E-03 1.98759097872000E-03 2.02156607259000E-03 
2.05612192327000E-03 2.09126845800000E-03 2.12701577369000E-03 2.16337413985000E-03 
2.20035400153000E-03 2.23796598235000E-03 2.27622088748000E-03 2.31512970683000E-03 
2.35470361814000E-03 2.39495399023000E-03 2.43589238627000E-03 2.47753056704000E-03 
2.51988049441000E-03 2.56295433469000E-03 2.60676446214000E-03 2.65132346259000E-03 
2.69664413696000E-03 2.74273950501000E-03 2.78962280904000E-03 2.83730751772000E-03 
2.88580732995000E-03 2.93513617879000E-03 2.98530823545000E-03 3.03633791340000E-03 
3.08823987247000E-03 3.14102902310000E-03 3.19472053059000E-03 3.24932981947000E-03 
3.30487257792000E-03 3.36136476231000E-03 3.41882260176000E-03 3.47726260278000E-03 
3.53670155406000E-03 3.59715653126000E-03 3.65864490192000E-03 3.72118433047000E-03 
3.78479278326000E-03 3.84948853378000E-03 3.91529016787000E-03 3.98221658906000E-03 
4.05028702401000E-03 4.11952102805000E-03 4.18993849076000E-03 4.26155964173000E-03 
4.33440505631000E-03 4.40849566160000E-03 4.48385274238000E-03 4.56049794728000E-03 
4.63845329500000E-03 4.71774118059000E-03 4.79838438193000E-03 4.88040606624000E-03 
4.96382979679000E-03 5.04867953957000E-03 5.13497967030000E-03 5.22275498131000E-03 
5.31203068877000E-03 5.40283243985000E-03 5.49518632015000E-03 5.58911886113000E-03 