<UPF version="2.0.1">
  <PP_INFO>
Generated using Vanderbilt code, version   7  3  6
Author: kfg        Generation date:    3    2 2014
Automatically converted from original USPP format to UPF.v1.

Futher converted to UPF.v2 format.
Convert Q_IJ to Q_IJL use the same routine as 'upflib/upf_to_internal.f90' of QE.
The conversion is done by using PseudoPotentialIO.jl package.
Converted by: JYU on 2024-04-30

1        The Pseudo was generated with a Scalar-Relativistic Calculation
1.45000000000E+00    Local Potential cutoff radius
nl pn  l   occ               Rcut            Rcut US             E pseu
3S  3  0  2.00      0.00000000000      1.40000000000    -10.04152760400
3P  3  1  6.00      0.00000000000      1.55000000000     -6.89117556000
3D  3  2  8.00      0.00000000000      1.50000000000     -1.85033609700
4S  4  0  2.00      0.00000000000      1.40000000000     -1.13527597000
4P  4  1  0.00      0.00000000000      1.55000000000     -0.65230847900
</PP_INFO>
  <PP_HEADER element="Cu" pseudo_type="US" relativistic="scalar" is_ultrasoft="T" is_paw="F" is_coulomb="F" has_so="F" has_wfc="F" has_gipaw="F" core_correction="T" functional="PBE" z_valence="19.0" total_psenergy="-402.118982616" wfc_cutoff="0.0" rho_cutoff="0.0" l_max="2" mesh_size="867" number_of_wfc="5" number_of_proj="6"/>
  <PP_MESH>
    <PP_R>
0.00000000000000E+00 1.46106238207000E-06 2.94709958648000E-06 4.45853852296000E-06 
5.99581339868000E-06 7.55936584296000E-06 9.14964503416000E-06 1.07671078287000E-05 
1.24122188924000E-05 1.40854508338000E-05 1.57872843400000E-05 1.75182083149000E-05 
1.92787200195000E-05 2.10693252146000E-05 2.28905383066000E-05 2.47428824947000E-05 
2.66268899215000E-05 2.85431018259000E-05 3.04920686986000E-05 3.24743504399000E-05 
3.44905165211000E-05 3.65411461476000E-05 3.86268284258000E-05 4.07481625317000E-05 
4.29057578835000E-05 4.51002343167000E-05 4.73322222620000E-05 4.96023629261000E-05 
5.19113084767000E-05 5.42597222290000E-05 5.66482788370000E-05 5.90776644867000E-05 
6.15485770935000E-05 6.40617265030000E-05 6.66178346942000E-05 6.92176359876000E-05 
7.18618772558000E-05 7.45513181382000E-05 7.72867312590000E-05 8.00689024495000E-05 
8.28986309737000E-05 8.57767297578000E-05 8.87040256239000E-05 9.16813595275000E-05 
9.47095867989000E-05 9.77895773893000E-05 1.00922216120000E-04 1.04108402939000E-04 
1.07349053174000E-04 1.10645097802000E-04 1.13997483713000E-04 1.17407173983000E-04 
1.20875148149000E-04 1.24402402494000E-04 1.27989950329000E-04 1.31638822287000E-04 
1.35350066620000E-04 1.39124749494000E-04 1.42963955304000E-04 1.46868786980000E-04 
1.50840366303000E-04 1.54879834233000E-04 1.58988351228000E-04 1.63167097588000E-04 
1.67417273786000E-04 1.71740100813000E-04 1.76136820536000E-04 1.80608696046000E-04 
1.85157012027000E-04 1.89783075122000E-04 1.94488214310000E-04 1.99273781285000E-04 
2.04141150849000E-04 2.09091721302000E-04 2.14126914849000E-04 2.19248178002000E-04 
2.24456982001000E-04 2.29754823235000E-04 2.35143223672000E-04 2.40623731293000E-04 
2.46197920544000E-04 2.51867392781000E-04 2.57633776733000E-04 2.63498728971000E-04 
2.69463934382000E-04 2.75531106655000E-04 2.81701988771000E-04 2.87978353504000E-04 
2.94362003932000E-04 3.00854773956000E-04 3.07458528822000E-04 3.14175165661000E-04 
3.21006614033000E-04 3.27954836481000E-04 3.35021829094000E-04 3.42209622083000E-04 
3.49520280363000E-04 3.56955904142000E-04 3.64518629533000E-04 3.72210629160000E-04 
3.80034112785000E-04 3.87991327945000E-04 3.96084560592000E-04 4.04316135756000E-04 
4.12688418210000E-04 4.21203813148000E-04 4.29864766878000E-04 4.38673767525000E-04 
4.47633345744000E-04 4.56746075448000E-04 4.66014574549000E-04 4.75441505707000E-04 
4.85029577096000E-04 4.94781543185000E-04 5.04700205524000E-04 5.14788413553000E-04 
5.25049065419000E-04 5.35485108809000E-04 5.46099541795000E-04 5.56895413701000E-04 
5.67875825969000E-04 5.79043933061000E-04 5.90402943357000E-04 6.01956120081000E-04 
6.13706782238000E-04 6.25658305565000E-04 6.37814123504000E-04 6.50177728185000E-04 
6.62752671433000E-04 6.75542565787000E-04 6.88551085535000E-04 7.01781967773000E-04 
7.15239013478000E-04 7.28926088598000E-04 7.42847125165000E-04 7.57006122425000E-04 
7.71407147981000E-04 7.86054338972000E-04 8.00951903251000E-04 8.16104120600000E-04 
8.31515343957000E-04 8.47190000670000E-04 8.63132593764000E-04 8.79347703237000E-04 
8.95839987376000E-04 9.12614184096000E-04 9.29675112298000E-04 9.47027673258000E-04 
9.64676852030000E-04 9.82627718881000E-04 1.00088543075000E-03 1.01945523272000E-03 
1.03834245954000E-03 1.05755253714000E-03 1.07709098421000E-03 1.09696341377000E-03 
1.11717553477000E-03 1.13773315377000E-03 1.15864217658000E-03 1.17990860996000E-03 
1.20153856333000E-03 1.22353825057000E-03 1.24591399176000E-03 1.26867221502000E-03 
1.29181945834000E-03 1.31536237148000E-03 1.33930771786000E-03 1.36366237653000E-03 
1.38843334409000E-03 1.41362773677000E-03 1.43925279244000E-03 1.46531587267000E-03 
1.49182446488000E-03 1.51878618447000E-03 1.54620877704000E-03 1.57410012056000E-03 
1.60246822766000E-03 1.63132124797000E-03 1.66066747039000E-03 1.69051532553000E-03 
1.72087338810000E-03 1.75175037938000E-03 1.78315516973000E-03 1.81509678114000E-03 
1.84758438982000E-03 1.88062732883000E-03 1.91423509077000E-03 1.94841733050000E-03 
1.98318386791000E-03 2.01854469076000E-03 2.05450995752000E-03 2.09109000032000E-03 
2.12829532791000E-03 2.16613662864000E-03 2.20462477360000E-03 2.24377081968000E-03 
2.28358601279000E-03 2.32408179106000E-03 2.36526978814000E-03 2.40716183654000E-03 
2.44976997105000E-03 2.49310643216000E-03 2.53718366959000E-03 2.58201434587000E-03 
2.62761134000000E-03 2.67398775111000E-03 2.72115690224000E-03 2.76913234419000E-03 
2.81792785935000E-03 2.86755746575000E-03 2.91803542101000E-03 2.96937622647000E-03 
3.02159463134000E-03 3.07470563696000E-03 3.12872450111000E-03 3.18366674235000E-03 
3.23954814452000E-03 3.29638476128000E-03 3.35419292067000E-03 3.41298922988000E-03 
3.47279057993000E-03 3.53361415060000E-03 3.59547741533000E-03 3.65839814623000E-03 
3.72239441921000E-03 3.78748461916000E-03 3.85368744525000E-03 3.92102191625000E-03 
3.98950737606000E-03 4.05916349922000E-03 4.13001029660000E-03 4.20206812110000E-03 
4.27535767355000E-03 4.34990000862000E-03 4.42571654087000E-03 4.50282905092000E-03 
4.58125969172000E-03 4.66103099487000E-03 4.74216587711000E-03 4.82468764693000E-03 
4.90862001123000E-03 4.99398708217000E-03 5.08081338405000E-03 5.16912386038000E-03 
5.25894388105000E-03 5.35029924963000E-03 5.44321621073000E-03 5.53772145761000E-03 
5.63384213979000E-03 5.73160587089000E-03 5.83104073653000E-03 5.93217530242000E-03 
6.03503862257000E-03 6.13966024762000E-03 6.24607023335000E-03 6.35429914927000E-03 
6.46437808746000E-03 6.57633867147000E-03 6.69021306542000E-03 6.80603398320000E-03 
6.92383469793000E-03 7.04364905148000E-03 7.16551146418000E-03 7.28945694476000E-03 
7.41552110035000E-03 7.54374014674000E-03 7.67415091878000E-03 7.80679088097000E-03 
7.94169813820000E-03 8.07891144671000E-03 8.21847022524000E-03 8.36041456631000E-03 
8.50478524780000E-03 8.65162374460000E-03 8.80097224057000E-03 8.95287364065000E-03 
9.10737158317000E-03 9.26451045239000E-03 9.42433539128000E-03 9.58689231445000E-03 
9.75222792135000E-03 9.92038970970000E-03 1.00914259891000E-02 1.02653858951000E-02 
1.04423194028000E-02 1.06222773420000E-02 1.08053114109000E-02 1.09914741918000E-02 
1.11808191657000E-02 1.13734007276000E-02 1.15692742025000E-02 1.17684958612000E-02 
1.19711229360000E-02 1.21772136379000E-02 1.23868271728000E-02 1.26000237584000E-02 
1.28168646422000E-02 1.30374121183000E-02 1.32617295456000E-02 1.34898813663000E-02 
1.37219331240000E-02 1.39579514826000E-02 1.41980042457000E-02 1.44421603757000E-02 
1.46904900141000E-02 1.49430645010000E-02 1.51999563963000E-02 1.54612395000000E-02 
1.57269888737000E-02 1.59972808621000E-02 1.62721931148000E-02 1.65518046088000E-02 
1.68361956710000E-02 1.71254480016000E-02 1.74196446970000E-02 1.77188702744000E-02 
1.80232106954000E-02 1.83327533912000E-02 1.86475872874000E-02 1.89678028296000E-02 
1.92934920097000E-02 1.96247483917000E-02 1.99616671393000E-02 2.03043450426000E-02 
2.06528805465000E-02 2.10073737784000E-02 2.13679265773000E-02 2.17346425232000E-02 
2.21076269663000E-02 2.24869870580000E-02 2.28728317810000E-02 2.32652719810000E-02 
2.36644203986000E-02 2.40703917013000E-02 2.44833025168000E-02 2.49032714665000E-02 
2.53304191993000E-02 2.57648684264000E-02 2.62067439567000E-02 2.66561727326000E-02 
2.71132838661000E-02 2.75782086765000E-02 2.80510807277000E-02 2.85320358666000E-02 
2.90212122625000E-02 2.95187504461000E-02 3.00247933506000E-02 3.05394863523000E-02 
3.10629773125000E-02 3.15954166202000E-02 3.21369572347000E-02 3.26877547302000E-02 
3.32479673402000E-02 3.38177560030000E-02 3.43972844077000E-02 3.49867190417000E-02 
3.55862292382000E-02 3.61959872248000E-02 3.68161681731000E-02 3.74469502493000E-02 
3.80885146647000E-02 3.87410457284000E-02 3.94047309000000E-02 4.00797608434000E-02 
4.07663294815000E-02 4.14646340523000E-02 4.21748751652000E-02 4.28972568587000E-02 
4.36319866591000E-02 4.43792756401000E-02 4.51393384832000E-02 4.59123935399000E-02 
4.66986628939000E-02 4.74983724251000E-02 4.83117518747000E-02 4.91390349109000E-02 
4.99804591960000E-02 5.08362664549000E-02 5.17067025445000E-02 5.25920175243000E-02 
5.34924657282000E-02 5.44083058374000E-02 5.53398009551000E-02 5.62872186818000E-02 
5.72508311923000E-02 5.82309153139000E-02 5.92277526057000E-02 6.02416294399000E-02 
6.12728370835000E-02 6.23216717826000E-02 6.33884348471000E-02 6.44734327375000E-02 
6.55769771525000E-02 6.66993851192000E-02 6.78409790836000E-02 6.90020870036000E-02 
7.01830424431000E-02 7.13841846676000E-02 7.26058587422000E-02 7.38484156300000E-02 
7.51122122938000E-02 7.63976117977000E-02 7.77049834122000E-02 7.90347027199000E-02 
8.03871517234000E-02 8.17627189551000E-02 8.31617995888000E-02 8.45847955534000E-02 
8.60321156481000E-02 8.75041756599000E-02 8.90013984832000E-02 9.05242142411000E-02 
9.20730604091000E-02 9.36483819408000E-02 9.52506313955000E-02 9.68802690685000E-02 
9.85377631232000E-02 1.00223589726000E-01 1.01938233181000E-01 1.03682186073000E-01 
1.05455949406000E-01 1.07260032748000E-01 1.09094954376000E-01 1.10961241430000E-01 
1.12859430055000E-01 1.14790065566000E-01 1.16753702597000E-01 1.18750905262000E-01 
1.20782247320000E-01 1.22848312334000E-01 1.24949693847000E-01 1.27086995545000E-01 
1.29260831432000E-01 1.31471826009000E-01 1.33720614453000E-01 1.36007842797000E-01 
1.38334168118000E-01 1.40700258723000E-01 1.43106794345000E-01 1.45554466335000E-01 
1.48043977862000E-01 1.50576044114000E-01 1.53151392504000E-01 1.55770762881000E-01 
1.58434907739000E-01 1.61144592436000E-01 1.63900595410000E-01 1.66703708409000E-01 
1.69554736713000E-01 1.72454499366000E-01 1.75403829416000E-01 1.78403574146000E-01 
1.81454595326000E-01 1.84557769455000E-01 1.87713988015000E-01 1.90924157726000E-01 
1.94189200808000E-01 1.97510055246000E-01 2.00887675055000E-01 2.04323030561000E-01 
2.07817108674000E-01 2.11370913177000E-01 2.14985465008000E-01 2.18661802558000E-01 
2.22400981968000E-01 2.26204077431000E-01 2.30072181504000E-01 2.34006405417000E-01 
2.38007879398000E-01 2.42077752991000E-01 2.46217195394000E-01 2.50427395788000E-01 
2.54709563681000E-01 2.59064929259000E-01 2.63494743732000E-01 2.68000279702000E-01 
2.72582831521000E-01 2.77243715668000E-01 2.81984271124000E-01 2.86805859761000E-01 
2.91709866725000E-01 2.96697700845000E-01 3.01770795028000E-01 3.06930606676000E-01 
3.12178618103000E-01 3.17516336961000E-01 3.22945296674000E-01 3.28467056876000E-01 
3.34083203863000E-01 3.39795351044000E-01 3.45605139410000E-01 3.51514237999000E-01 
3.57524344382000E-01 3.63637185146000E-01 3.69854516391000E-01 3.76178124237000E-01 
3.82609825334000E-01 3.89151467385000E-01 3.95804929677000E-01 4.02572123622000E-01 
4.09454993302000E-01 4.16455516034000E-01 4.23575702932000E-01 4.30817599488000E-01 
4.38183286159000E-01 4.45674878964000E-01 4.53294530092000E-01 4.61044428523000E-01 
4.68926800651000E-01 4.76943910930000E-01 4.85098062520000E-01 4.93391597952000E-01 
5.01826899797000E-01 5.10406391355000E-01 5.19132537348000E-01 5.28007844627000E-01 
5.37034862899000E-01 5.46216185449000E-01 5.55554449895000E-01 5.65052338939000E-01 
5.74712581141000E-01 5.84537951701000E-01 5.94531273259000E-01 6.04695416702000E-01 
6.15033301992000E-01 6.25547899003000E-01 6.36242228376000E-01 6.47119362384000E-01 
6.58182425817000E-01 6.69434596881000E-01 6.80879108105000E-01 6.92519247276000E-01 
7.04358358382000E-01 7.16399842568000E-01 7.28647159122000E-01 7.41103826460000E-01 
7.53773423141000E-01 7.66659588896000E-01 7.79766025670000E-01 7.93096498689000E-01 
8.06654837540000E-01 8.20444937272000E-01 8.34470759513000E-01 8.48736333610000E-01 
8.63245757788000E-01 8.78003200322000E-01 8.93012900741000E-01 9.08279171040000E-01 
9.23806396925000E-01 9.39599039066000E-01 9.55661634384000E-01 9.71998797352000E-01 
9.88615221320000E-01 1.00551567987000E+00 1.02270502816000E+00 1.04018820438000E+00 
1.05797023110000E+00 1.07605621674000E+00 1.09445135707000E+00 1.11316093665000E+00 
1.13219033038000E+00 1.15154500504000E+00 1.17123052086000E+00 1.19125253309000E+00 
1.21161679368000E+00 1.23232915288000E+00 1.25339556095000E+00 1.27482206987000E+00 
1.29661483506000E+00 1.31878011716000E+00 1.34132428381000E+00 1.36425381154000E+00 
1.38757528754000E+00 1.41129541162000E+00 1.43542099812000E+00 1.45995897785000E+00 
1.48491640010000E+00 1.51030043466000E+00 1.53611837385000E+00 1.56237763469000E+00 
1.58908576094000E+00 1.61625042534000E+00 1.64387943176000E+00 1.67198071749000E+00 
1.70056235548000E+00 1.72963255668000E+00 1.75919967240000E+00 1.78927219670000E+00 
1.81985876883000E+00 1.85096817573000E+00 1.88260935452000E+00 1.91479139510000E+00 
1.94752354275000E+00 1.98081520079000E+00 2.01467593325000E+00 2.04911546769000E+00 
2.08414369790000E+00 2.11977068681000E+00 2.15600666939000E+00 2.19286205551000E+00 
2.23034743302000E+00 2.26847357075000E+00 2.30725142159000E+00 2.34669212568000E+00 
2.38680701355000E+00 2.42760760945000E+00 2.46910563459000E+00 2.51131301056000E+00 
2.55424186272000E+00 2.59790452369000E+00 2.64231353691000E+00 2.68748166024000E+00 
2.73342186960000E+00 2.78014736272000E+00 2.82767156294000E+00 2.87600812303000E+00 
2.92517092916000E+00 2.97517410485000E+00 3.02603201504000E+00 3.07775927023000E+00 
3.13037073065000E+00 3.18388151057000E+00 3.23830698259000E+00 3.29366278209000E+00 
3.34996481173000E+00 3.40722924599000E+00 3.46547253584000E+00 3.52471141344000E+00 
3.58496289698000E+00 3.64624429555000E+00 3.70857321409000E+00 3.77196755852000E+00 
3.83644554078000E+00 3.90202568417000E+00 3.96872682858000E+00 4.03656813597000E+00 
4.10556909583000E+00 4.17574953080000E+00 4.24712960235000E+00 4.31972981662000E+00 
4.39357103022000E+00 4.46867445632000E+00 4.54506167067000E+00 4.62275461784000E+00 
4.70177561752000E+00 4.78214737090000E+00 4.86389296724000E+00 4.94703589046000E+00 
5.03160002592000E+00 5.11760966726000E+00 5.20508952337000E+00 5.29406472554000E+00 
5.38456083462000E+00 5.47660384839000E+00 5.57022020901000E+00 5.66543681067000E+00 
5.76228100725000E+00 5.86078062022000E+00 5.96096394660000E+00 6.06285976713000E+00 
6.16649735450000E+00 6.27190648179000E+00 6.37911743100000E+00 6.48816100176000E+00 
6.59906852018000E+00 6.71187184785000E+00 6.82660339097000E+00 6.94329610970000E+00 
7.06198352760000E+00 7.18269974127000E+00 7.30547943013000E+00 7.43035786643000E+00 
7.55737092531000E+00 7.68655509517000E+00 7.81794748812000E+00 7.95158585066000E+00 
8.08750857450000E+00 8.22575470761000E+00 8.36636396542000E+00 8.50937674226000E+00 
8.65483412293000E+00 8.80277789452000E+00 8.95325055842000E+00 9.10629534250000E+00 
9.26195621357000E+00 9.42027788999000E+00 9.58130585451000E+00 9.74508636736000E+00 
9.91166647950000E+00 1.00810940462000E+01 1.02534177406000E+01 1.04286870682000E+01 
1.06069523802000E+01 1.07882648890000E+01 1.09726766821000E+01 1.11602407375000E+01 
1.13510109385000E+01 1.15450420900000E+01 1.17423899332000E+01 1.19431111623000E+01 
1.21472634407000E+01 1.23549054174000E+01 1.25660967439000E+01 1.27808980914000E+01 
1.29993711681000E+01 1.32215787372000E+01 1.34475846346000E+01 1.36774537873000E+01 
1.39112522324000E+01 1.41490471357000E+01 1.43909068109000E+01 1.46369007398000E+01 
1.48870995915000E+01 1.51415752435000E+01 1.54004008015000E+01 1.56636506213000E+01 
1.59314003293000E+01 1.62037268449000E+01 1.64807084023000E+01 1.67624245728000E+01 
1.70489562880000E+01 1.73403858631000E+01 1.76367970200000E+01 1.79382749120000E+01 
1.82449061477000E+01 1.85567788166000E+01 1.88739825134000E+01 1.91966083647000E+01 
1.95247490548000E+01 1.98584988519000E+01 2.01979536360000E+01 2.05432109260000E+01 
2.08943699074000E+01 2.12515314616000E+01 2.16147981941000E+01 2.19842744644000E+01 
2.23600664158000E+01 2.27422820063000E+01 2.31310310388000E+01 2.35264251935000E+01 
2.39285780594000E+01 2.43376051674000E+01 2.47536240229000E+01 2.51767541401000E+01 
2.56071170762000E+01 2.60448364660000E+01 2.64900380579000E+01 2.69428497498000E+01 
2.74034016255000E+01 2.78718259928000E+01 2.83482574209000E+01 2.88328327793000E+01 
2.93256912773000E+01 2.98269745034000E+01 3.03368264667000E+01 3.08553936377000E+01 
3.13828249908000E+01 3.19192720468000E+01 3.24648889165000E+01 3.30198323451000E+01 
3.35842617572000E+01 3.41583393024000E+01 3.47422299020000E+01 3.53361012965000E+01 
3.59401240937000E+01 3.65544718176000E+01 3.71793209584000E+01 3.78148510233000E+01 
3.84612445877000E+01 3.91186873480000E+01 3.97873681747000E+01 4.04674791669000E+01 
4.11592157073000E+01 4.18627765186000E+01 4.25783637200000E+01 4.33061828859000E+01 
4.40464431047000E+01 4.47993570388000E+01 4.55651409858000E+01 4.63440149407000E+01 
4.71362026589000E+01 4.79419317205000E+01 4.87614335959000E+01 4.95949437121000E+01 
5.04427015206000E+01 5.13049505656000E+01 5.21819385547000E+01 5.30739174295000E+01 
5.39811434384000E+01 5.49038772097000E+01 5.58423838271000E+01 5.67969329053000E+01 
5.77677986678000E+01 5.87552600256000E+01 5.97596006571000E+01 6.07811090901000E+01 
6.18200787841000E+01 6.28768082151000E+01 6.39516009608000E+01 6.50447657886000E+01 
6.61566167435000E+01 6.72874732387000E+01 6.84376601474000E+01 6.96075078962000E+01 
7.07973525596000E+01 7.20075359569000E+01 7.32384057504000E+01 7.44903155453000E+01 
7.57636249909000E+01 7.70586998844000E+01 7.83759122759000E+01 7.97156405748000E+01 
8.10782696593000E+01 8.24641909862000E+01 8.38738027040000E+01 8.53075097669000E+01 
8.67657240511000E+01 8.82488644734000E+01 8.97573571113000E+01 9.12916353256000E+01 
9.28521398847000E+01 9.44393190914000E+01 9.60536289116000E+01 9.76955331051000E+01 
9.93655033594000E+01 1.01064019425000E+02 1.02791569251000E+02 1.04548649131000E+02 
1.06335763840000E+02 1.08153426780000E+02 1.10002160132000E+02 1.11882495000000E+02 
1.13794971568000E+02 1.15740139254000E+02 1.17718556867000E+02 1.19730792768000E+02 
1.21777425034000E+02 1.23859041622000E+02 1.25976240540000E+02 1.28129630019000E+02 
1.30319828686000E+02 1.32547465742000E+02 1.34813181145000E+02 1.37117625791000E+02 
1.39461461701000E+02 1.41845362216000E+02 1.44270012183000E+02 1.46736108157000E+02 
1.49244358600000E+02 1.51795484084000E+02 1.54390217497000E+02 1.57029304258000E+02 
1.59713502523000E+02 1.62443583411000E+02 1.65220331222000E+02 1.68044543662000E+02 
1.70917032071000E+02 1.73838621661000E+02 1.76810151748000E+02 1.79832475995000E+02 
1.82906462656000E+02 1.86032994830000E+02 1.89212970707000E+02 1.92447303834000E+02 
1.95736923372000E+02 1.99082774366000E+02 2.02485818012000E+02 
</PP_R>
    <PP_RAB>
1.44871547438000E-06 1.47347924357000E-06 1.49866631483000E-06 1.52428392392000E-06 
1.55033943029000E-06 1.57684031918000E-06 1.60379420377000E-06 1.63120882741000E-06 
1.65909206578000E-06 1.68745192919000E-06 1.71629656489000E-06 1.74563425938000E-06 
1.77547344081000E-06 1.80582268141000E-06 1.83669069992000E-06 1.86808636412000E-06 
1.90001869339000E-06 1.93249686126000E-06 1.96553019809000E-06 1.99912819370000E-06 
2.03330050016000E-06 2.06805693451000E-06 2.10340748160000E-06 2.13936229695000E-06 
2.17593170970000E-06 2.21312622551000E-06 2.25095652967000E-06 2.28943349008000E-06 
2.32856816043000E-06 2.36837178335000E-06 2.40885579365000E-06 2.45003182161000E-06 
2.49191169631000E-06 2.53450744901000E-06 2.57783131666000E-06 2.62189574536000E-06 
2.66671339397000E-06 2.71229713774000E-06 2.75866007199000E-06 2.80581551590000E-06 
2.85377701631000E-06 2.90255835163000E-06 2.95217353580000E-06 3.00263682230000E-06 
3.05396270826000E-06 3.10616593861000E-06 3.15926151032000E-06 3.21326467673000E-06 
3.26819095190000E-06 3.32405611510000E-06 3.38087621529000E-06 3.43866757579000E-06 
3.49744679895000E-06 3.55723077089000E-06 3.61803666640000E-06 3.67988195383000E-06 
3.74278440014000E-06 3.80676207598000E-06 3.87183336090000E-06 3.93801694862000E-06 
4.00533185240000E-06 4.07379741053000E-06 4.14343329181000E-06 4.21425950130000E-06 
4.28629638600000E-06 4.35956464071000E-06 4.43408531397000E-06 4.50987981414000E-06 
4.58696991552000E-06 4.66537776459000E-06 4.74512588641000E-06 4.82623719107000E-06 
4.90873498029000E-06 4.99264295408000E-06 5.07798521758000E-06 5.16478628797000E-06 
5.25307110152000E-06 5.34286502074000E-06 5.43419384170000E-06 5.52708380139000E-06 
5.62156158530000E-06 5.71765433507000E-06 5.81538965629000E-06 5.91479562643000E-06 
6.01590080290000E-06 6.11873423125000E-06 6.22332545354000E-06 6.32970451682000E-06 
6.43790198171000E-06 6.54794893126000E-06 6.65987697984000E-06 6.77371828219000E-06 
6.88950554273000E-06 7.00727202490000E-06 7.12705156072000E-06 7.24887856054000E-06 
7.37278802290000E-06 7.49881554459000E-06 7.62699733087000E-06 7.75737020591000E-06 
7.88997162328000E-06 8.02483967683000E-06 8.16201311153000E-06 8.30153133466000E-06 
8.44343442709000E-06 8.58776315485000E-06 8.73455898079000E-06 8.88386407650000E-06 
9.03572133444000E-06 9.19017438028000E-06 9.34726758538000E-06 9.50704607958000E-06 
9.66955576414000E-06 9.83484332497000E-06 1.00029562460000E-05 1.01739428227000E-05 
1.03478521764000E-05 1.05247342677000E-05 1.07046399116000E-05 1.08876207913000E-05 
1.10737294739000E-05 1.12630194246000E-05 1.14555450228000E-05 1.16513615775000E-05 
1.18505253428000E-05 1.20530935348000E-05 1.22591243473000E-05 1.24686769690000E-05 
1.26818116004000E-05 1.28985894708000E-05 1.31190728563000E-05 1.33433250977000E-05 
1.35714106181000E-05 1.38033949421000E-05 1.40393447145000E-05 1.42793277189000E-05 
1.45234128978000E-05 1.47716703722000E-05 1.50241714617000E-05 1.52809887049000E-05 
1.55421958804000E-05 1.58078680281000E-05 1.60780814704000E-05 1.63529138343000E-05 
1.66324440740000E-05 1.69167524930000E-05 1.72059207676000E-05 1.75000319703000E-05 
1.77991705935000E-05 1.81034225741000E-05 1.84128753176000E-05 1.87276177239000E-05 
1.90477402124000E-05 1.93733347480000E-05 1.97044948678000E-05 2.00413157077000E-05 
2.03838940298000E-05 2.07323282502000E-05 2.10867184673000E-05 2.14471664906000E-05 
2.18137758698000E-05 2.21866519247000E-05 2.25659017754000E-05 2.29516343730000E-05 
2.33439605310000E-05 2.37429929571000E-05 2.41488462856000E-05 2.45616371104000E-05 
2.49814840183000E-05 2.54085076231000E-05 2.58428306004000E-05 2.62845777229000E-05 
2.67338758960000E-05 2.71908541943000E-05 2.76556438988000E-05 2.81283785347000E-05 
2.86091939094000E-05 2.90982281519000E-05 2.95956217523000E-05 3.01015176021000E-05 
3.06160610354000E-05 3.11393998706000E-05 3.16716844528000E-05 3.22130676971000E-05 
3.27637051324000E-05 3.33237549461000E-05 3.38933780299000E-05 3.44727380252000E-05 
3.50620013712000E-05 3.56613373516000E-05 3.62709181442000E-05 3.68909188697000E-05 
3.75215176423000E-05 3.81628956208000E-05 3.88152370608000E-05 3.94787293673000E-05 
4.01535631488000E-05 4.08399322719000E-05 4.15380339174000E-05 4.22480686361000E-05 
4.29702404075000E-05 4.37047566974000E-05 4.44518285182000E-05 4.52116704892000E-05 
4.59845008981000E-05 4.67705417644000E-05 4.75700189023000E-05 4.83831619860000E-05 
4.92102046160000E-05 5.00513843855000E-05 5.09069429491000E-05 5.17771260924000E-05 
5.26621838021000E-05 5.35623703382000E-05 5.44779443067000E-05 5.54091687345000E-05 
5.63563111442000E-05 5.73196436316000E-05 5.82994429434000E-05 5.92959905570000E-05 
6.03095727613000E-05 6.13404807388000E-05 6.23890106494000E-05 6.34554637155000E-05 
6.45401463085000E-05 6.56433700365000E-05 6.67654518345000E-05 6.79067140548000E-05 
6.90674845601000E-05 7.02480968171000E-05 7.14488899930000E-05 7.26702090524000E-05 
7.39124048566000E-05 7.51758342645000E-05 7.64608602348000E-05 7.77678519307000E-05 
7.90971848256000E-05 8.04492408111000E-05 8.18244083067000E-05 8.32230823715000E-05 
8.46456648173000E-05 8.60925643248000E-05 8.75641965599000E-05 8.90609842943000E-05 
9.05833575261000E-05 9.21317536037000E-05 9.37066173512000E-05 9.53084011966000E-05 
9.69375653014000E-05 9.85945776928000E-05 1.00279914399000E-04 1.01994059583000E-04 
1.03737505687000E-04 1.05510753570000E-04 1.07314312650000E-04 1.09148701055000E-04 
1.11014445770000E-04 1.12912082787000E-04 1.14842157261000E-04 1.16805223664000E-04 
1.18801845948000E-04 1.20832597703000E-04 1.22898062325000E-04 1.24998833182000E-04 
1.27135513785000E-04 1.29308717961000E-04 1.31519070030000E-04 1.33767204982000E-04 
1.36053768664000E-04 1.38379417961000E-04 1.40744820987000E-04 1.43150657276000E-04 
1.45597617979000E-04 1.48086406061000E-04 1.50617736501000E-04 1.53192336502000E-04 
1.55810945698000E-04 1.58474316362000E-04 1.61183213632000E-04 1.63938415719000E-04 
1.66740714141000E-04 1.69590913944000E-04 1.72489833934000E-04 1.75438306916000E-04 
1.78437179929000E-04 1.81487314491000E-04 1.84589586846000E-04 1.87744888217000E-04 
1.90954125062000E-04 1.94218219332000E-04 1.97538108737000E-04 2.00914747019000E-04 
2.04349104220000E-04 2.07842166965000E-04 2.11394938742000E-04 2.15008440194000E-04 
2.18683709410000E-04 2.22421802225000E-04 2.26223792519000E-04 2.30090772531000E-04 
2.34023853169000E-04 2.38024164332000E-04 2.42092855232000E-04 2.46231094724000E-04 
2.50440071645000E-04 2.54720995152000E-04 2.59075095072000E-04 2.63503622254000E-04 
2.68007848927000E-04 2.72589069069000E-04 2.77248598776000E-04 2.81987776640000E-04 
2.86807964136000E-04 2.91710546009000E-04 2.96696930678000E-04 3.01768550634000E-04 
3.06926862855000E-04 3.12173349224000E-04 3.17509516956000E-04 3.22936899027000E-04 
3.28457054621000E-04 3.34071569571000E-04 3.39782056818000E-04 3.45590156875000E-04 
3.51497538296000E-04 3.57505898158000E-04 3.63616962547000E-04 3.69832487053000E-04 
3.76154257276000E-04 3.82584089338000E-04 3.89123830406000E-04 3.95775359220000E-04 
4.02540586637000E-04 4.09421456174000E-04 4.16419944573000E-04 4.23538062365000E-04 
4.30777854445000E-04 4.38141400668000E-04 4.45630816436000E-04 4.53248253315000E-04 
4.60995899646000E-04 4.68875981178000E-04 4.76890761706000E-04 4.85042543723000E-04 
4.93333669076000E-04 5.01766519645000E-04 5.10343518026000E-04 5.19067128225000E-04 
5.27939856365000E-04 5.36964251409000E-04 5.46142905892000E-04 5.55478456664000E-04 
5.64973585648000E-04 5.74631020609000E-04 5.84453535944000E-04 5.94443953470000E-04 
6.04605143240000E-04 6.14940024369000E-04 6.25451565867000E-04 6.36142787496000E-04 
6.47016760639000E-04 6.58076609177000E-04 6.69325510390000E-04 6.80766695870000E-04 
6.92403452449000E-04 7.04239123141000E-04 7.16277108106000E-04 7.28520865623000E-04 
7.40973913087000E-04 7.53639828018000E-04 7.66522249088000E-04 7.79624877167000E-04 
7.92951476387000E-04 8.06505875222000E-04 8.20291967589000E-04 8.34313713964000E-04 
8.48575142525000E-04 8.63080350303000E-04 8.77833504365000E-04 8.92838843006000E-04 
9.08100676969000E-04 9.23623390684000E-04 9.39411443526000E-04 9.55469371098000E-04 
9.71801786531000E-04 9.88413381812000E-04 1.00530892913000E-03 1.02249328225000E-03 
1.03997137791000E-03 1.05774823721000E-03 1.07582896712000E-03 1.09421876187000E-03 
1.11292290450000E-03 1.13194676834000E-03 1.15129581859000E-03 1.17097561384000E-03 
1.19099180773000E-03 1.21135015052000E-03 1.23205649077000E-03 1.25311677700000E-03 
1.27453705944000E-03 1.29632349171000E-03 1.31848233263000E-03 1.34101994802000E-03 
1.36394281248000E-03 1.38725751132000E-03 1.41097074240000E-03 1.43508931808000E-03 
1.45962016714000E-03 1.48457033683000E-03 1.50994699485000E-03 1.53575743143000E-03 
1.56200906139000E-03 1.58870942633000E-03 1.61586619675000E-03 1.64348717426000E-03 
1.67158029383000E-03 1.70015362608000E-03 1.72921537956000E-03 1.75877390315000E-03 
1.78883768846000E-03 1.81941537222000E-03 1.85051573880000E-03 1.88214772275000E-03 
1.91432041132000E-03 1.94704304710000E-03 1.98032503068000E-03 2.01417592331000E-03 
2.04860544970000E-03 2.08362350080000E-03 2.11924013662000E-03 2.15546558911000E-03 
2.19231026516000E-03 2.22978474953000E-03 2.26789980790000E-03 2.30666639001000E-03 
2.34609563273000E-03 2.38619886333000E-03 2.42698760268000E-03 2.46847356862000E-03 
2.51066867924000E-03 2.55358505638000E-03 2.59723502911000E-03 2.64163113719000E-03 
2.68678613479000E-03 2.73271299404000E-03 2.77942490887000E-03 2.82693529868000E-03 
2.87525781230000E-03 2.92440633185000E-03 2.97439497676000E-03 3.02523810778000E-03 
3.07695033117000E-03 3.12954650284000E-03 3.18304173267000E-03 3.23745138880000E-03 
3.29279110206000E-03 3.34907677048000E-03 3.40632456386000E-03 3.46455092836000E-03 
3.52377259131000E-03 3.58400656593000E-03 3.64527015629000E-03 3.70758096222000E-03 
3.77095688442000E-03 3.83541612956000E-03 3.90097721554000E-03 3.96765897678000E-03 
4.03548056967000E-03 4.10446147804000E-03 4.17462151876000E-03 4.24598084747000E-03 
4.31855996431000E-03 4.39237971986000E-03 4.46746132110000E-03 4.54382633754000E-03 
4.62149670735000E-03 4.70049474374000E-03 4.78084314131000E-03 4.86256498260000E-03 