<UPF version="2.0.1">
  <PP_INFO>
Generated using Vanderbilt code, version   7  3  6
Author: kfg        Generation date:    1    4   15
Automatically converted from original USPP format to UPF.v1.

Futher converted to UPF.v2 format.
Convert Q_IJ to Q_IJL use the same routine as 'upflib/upf_to_internal.f90' of QE.
The conversion is done by using PseudoPotentialIO.jl package.
Converted by: JYU on 2024-04-30

1        The Pseudo was generated with a Scalar-Relativistic Calculation
1.30000000000E+00    Local Potential cutoff radius
nl pn  l   occ               Rcut            Rcut US             E pseu
2S  2  0  2.00      0.00000000000      1.30000000000     -2.19751425700
2P  2  1  5.00      0.00000000000      1.40000000000     -0.81670013000
</PP_INFO>
  <PP_HEADER element="F" pseudo_type="US" relativistic="scalar" is_ultrasoft="T" is_paw="F" is_coulomb="F" has_so="F" has_wfc="F" has_gipaw="F" core_correction="F" functional="PBE" z_valence="7.0" total_psenergy="-48.3255480877" wfc_cutoff="0.0" rho_cutoff="0.0" l_max="1" mesh_size="799" number_of_wfc="2" number_of_proj="4"/>
  <PP_MESH>
    <PP_R>
0.00000000000000E+00 4.70786767555000E-06 9.49620977865000E-06 1.43664019073000E-05 
1.93198431735000E-05 2.43579566051000E-05 2.94821895545000E-05 3.46940141148000E-05 
3.99949275422000E-05 4.53864526866000E-05 5.08701384289000E-05 5.64475601258000E-05 
6.21203200627000E-05 6.78900479138000E-05 7.37584012102000E-05 7.97270658162000E-05 
8.57977564137000E-05 9.19722169946000E-05 9.82522213620000E-05 1.04639573640000E-04 
1.11136108790000E-04 1.17743693142000E-04 1.24464224927000E-04 1.31299634824000E-04 
1.38251886514000E-04 1.45322977243000E-04 1.52514938400000E-04 1.59829836095000E-04 
1.67269771758000E-04 1.74836882738000E-04 1.82533342919000E-04 1.90361363346000E-04 
1.98323192857000E-04 2.06421118732000E-04 2.14657467348000E-04 2.23034604849000E-04 
2.31554937824000E-04 2.40220914001000E-04 2.49035022946000E-04 2.57999796782000E-04 
2.67117810915000E-04 2.76391684775000E-04 2.85824082566000E-04 2.95417714033000E-04 
3.05175335241000E-04 3.15099749366000E-04 3.25193807499000E-04 3.35460409469000E-04 
3.45902504671000E-04 3.56523092918000E-04 3.67325225299000E-04 3.78312005056000E-04 
3.89486588481000E-04 4.00852185814000E-04 4.12412062171000E-04 4.24169538482000E-04 
4.36127992441000E-04 4.48290859481000E-04 4.60661633759000E-04 4.73243869158000E-04 
4.86041180311000E-04 4.99057243638000E-04 5.12295798403000E-04 5.25760647785000E-04 
5.39455659976000E-04 5.53384769287000E-04 5.67551977282000E-04 5.81961353926000E-04 
5.96617038754000E-04 6.11523242060000E-04 6.26684246109000E-04 6.42104406362000E-04 
6.57788152735000E-04 6.73739990863000E-04 6.89964503402000E-04 7.06466351340000E-04 
7.23250275337000E-04 7.40321097092000E-04 7.57683720720000E-04 7.75343134168000E-04 
7.93304410642000E-04 8.11572710071000E-04 8.30153280584000E-04 8.49051460018000E-04 
8.68272677454000E-04 8.87822454778000E-04 9.07706408261000E-04 9.27930250178000E-04 
9.48499790449000E-04 9.69420938303000E-04 9.90699703981000E-04 1.01234220046000E-03 
1.03435464522000E-03 1.05674336199000E-03 1.07951478264000E-03 1.10267544894000E-03 
1.12623201450000E-03 1.15019124668000E-03 1.17456002850000E-03 1.19934536063000E-03 
1.22455436342000E-03 1.25019427893000E-03 1.27627247302000E-03 1.30279643744000E-03 
1.32977379201000E-03 1.35721228681000E-03 1.38511980438000E-03 1.41350436202000E-03 
1.44237411406000E-03 1.47173735422000E-03 1.50160251799000E-03 1.53197818505000E-03 
1.56287308175000E-03 1.59429608360000E-03 1.62625621780000E-03 1.65876266589000E-03 
1.69182476635000E-03 1.72545201727000E-03 1.75965407912000E-03 1.79444077748000E-03 
1.82982210590000E-03 1.86580822875000E-03 1.90240948415000E-03 1.93963638693000E-03 
1.97749963166000E-03 2.01601009571000E-03 2.05517884240000E-03 2.09501712415000E-03 
2.13553638573000E-03 2.17674826754000E-03 2.21866460895000E-03 2.26129745171000E-03 
2.30465904343000E-03 2.34876184104000E-03 2.39361851442000E-03 2.43924195003000E-03 
2.48564525461000E-03 2.53284175891000E-03 2.58084502159000E-03 2.62966883304000E-03 
2.67932721942000E-03 2.72983444660000E-03 2.78120502435000E-03 2.83345371043000E-03 
2.88659551488000E-03 2.94064570431000E-03 2.99561980629000E-03 3.05153361383000E-03 
3.10840318987000E-03 3.16624487195000E-03 3.22507527686000E-03 3.28491130543000E-03 
3.34577014741000E-03 3.40766928635000E-03 3.47062650469000E-03 3.53465988881000E-03 
3.59978783426000E-03 3.66602905105000E-03 3.73340256900000E-03 3.80192774320000E-03 
3.87162425962000E-03 3.94251214073000E-03 4.01461175122000E-03 4.08794380394000E-03 
4.16252936575000E-03 4.23838986366000E-03 4.31554709090000E-03 4.39402321325000E-03 
4.47384077540000E-03 4.55502270738000E-03 4.63759233119000E-03 4.72157336748000E-03 
4.80698994238000E-03 4.89386659442000E-03 4.98222828158000E-03 5.07210038846000E-03 
5.16350873359000E-03 5.25647957680000E-03 5.35103962683000E-03 5.44721604894000E-03 
5.54503647276000E-03 5.64452900021000E-03 5.74572221356000E-03 5.84864518367000E-03 
5.95332747832000E-03 6.05979917069000E-03 6.16809084805000E-03 6.27823362050000E-03 
6.39025912993000E-03 6.50419955910000E-03 6.62008764089000E-03 6.73795666770000E-03 
6.85784050103000E-03 6.97977358117000E-03 7.10379093715000E-03 7.22992819675000E-03 
7.35822159676000E-03 7.48870799340000E-03 7.62142487288000E-03 7.75641036220000E-03 
7.89370324006000E-03 8.03334294807000E-03 8.17536960200000E-03 8.31982400336000E-03 
8.46674765112000E-03 8.61618275358000E-03 8.76817224057000E-03 8.92275977572000E-03 
9.07998976903000E-03 9.23990738965000E-03 9.40255857881000E-03 9.56799006306000E-03 
9.73624936764000E-03 9.90738483022000E-03 1.00814456147000E-02 1.02584817253000E-02 
1.04385440212000E-02 1.06216842308000E-02 1.08079549666000E-02 1.09974097407000E-02 
1.11901029798000E-02 1.13860900408000E-02 1.15854272272000E-02 1.17881718045000E-02 
1.19943820175000E-02 1.22041171062000E-02 1.24174373236000E-02 1.26344039524000E-02 
1.28550793228000E-02 1.30795268308000E-02 1.33078109557000E-02 1.35399972791000E-02 
1.37761525037000E-02 1.40163444722000E-02 1.42606421872000E-02 1.45091158308000E-02 
1.47618367844000E-02 1.50188776501000E-02 1.52803122707000E-02 1.55462157512000E-02 
1.58166644806000E-02 1.60917361537000E-02 1.63715097930000E-02 1.66560657723000E-02 
1.69454858390000E-02 1.72398531377000E-02 1.75392522346000E-02 1.78437691412000E-02 
1.81534913393000E-02 1.84685078062000E-02 1.87889090399000E-02 1.91147870856000E-02 
1.94462355616000E-02 1.97833496868000E-02 2.01262263075000E-02 2.04749639254000E-02 
2.08296627263000E-02 2.11904246081000E-02 2.15573532108000E-02 2.19305539459000E-02 
2.23101340267000E-02 2.26962024992000E-02 2.30888702735000E-02 2.34882501553000E-02 
2.38944568789000E-02 2.43076071395000E-02 2.47278196272000E-02 2.51552150609000E-02 
2.55899162231000E-02 2.60320479950000E-02 2.64817373924000E-02 2.69391136026000E-02 
2.74043080207000E-02 2.78774542882000E-02 2.83586883307000E-02 2.88481483976000E-02 
2.93459751013000E-02 2.98523114577000E-02 3.03673029275000E-02 3.08910974577000E-02 
3.14238455243000E-02 3.19657001757000E-02 3.25168170761000E-02 3.30773545508000E-02 
3.36474736313000E-02 3.42273381019000E-02 3.48171145462000E-02 3.54169723959000E-02 
3.60270839782000E-02 3.66476245666000E-02 3.72787724303000E-02 3.79207088860000E-02 
3.85736183494000E-02 3.92376883889000E-02 3.99131097789000E-02 4.06000765550000E-02 
4.12987860693000E-02 4.20094390477000E-02 4.27322396470000E-02 4.34673955137000E-02 
4.42151178440000E-02 4.49756214440000E-02 4.57491247917000E-02 4.65358500996000E-02 
4.73360233787000E-02 4.81498745032000E-02 4.89776372769000E-02 4.98195494999000E-02 
5.06758530375000E-02 5.15467938889000E-02 5.24326222587000E-02 5.33335926282000E-02 
5.42499638288000E-02 5.51819991162000E-02 5.61299662460000E-02 5.70941375509000E-02 
5.80747900186000E-02 5.90722053717000E-02 6.00866701483000E-02 6.11184757843000E-02 
6.21679186978000E-02 6.32353003732000E-02 6.43209274487000E-02 6.54251118040000E-02 
6.65481706498000E-02 6.76904266192000E-02 6.88522078602000E-02 7.00338481302000E-02 
7.12356868915000E-02 7.24580694090000E-02 7.37013468498000E-02 7.49658763833000E-02 
7.62520212843000E-02 7.75601510375000E-02 7.88906414432000E-02 8.02438747255000E-02 
8.16202396421000E-02 8.30201315962000E-02 8.44439527495000E-02 8.58921121383000E-02 
8.73650257908000E-02 8.88631168465000E-02 9.03868156781000E-02 9.19365600147000E-02 
9.35127950680000E-02 9.51159736596000E-02 9.67465563518000E-02 9.84050115795000E-02 
1.00091815785000E-01 1.01807453554000E-01 1.03552417756000E-01 1.05327209686000E-01 
1.07132339207000E-01 1.08968324898000E-01 1.10835694203000E-01 1.12734983579000E-01 
1.14666738656000E-01 1.16631514391000E-01 1.18629875225000E-01 1.20662395248000E-01 
1.22729658364000E-01 1.24832258458000E-01 1.26970799567000E-01 1.29145896051000E-01 
1.31358172774000E-01 1.33608265280000E-01 1.35896819977000E-01 1.38224494323000E-01 
1.40591957013000E-01 1.42999888174000E-01 1.45448979557000E-01 1.47939934740000E-01 
1.50473469325000E-01 1.53050311148000E-01 1.55671200485000E-01 1.58336890268000E-01 
1.61048146298000E-01 1.63805747466000E-01 1.66610485977000E-01 1.69463167578000E-01 
1.72364611791000E-01 1.75315652143000E-01 1.78317136411000E-01 1.81369926864000E-01 
1.84474900509000E-01 1.87632949345000E-01 1.90844980618000E-01 1.94111917084000E-01 
1.97434697269000E-01 2.00814275744000E-01 2.04251623396000E-01 2.07747727710000E-01 
2.11303593047000E-01 2.14920240940000E-01 2.18598710381000E-01 2.22340058123000E-01 
2.26145358983000E-01 2.30015706151000E-01 2.33952211503000E-01 2.37956005919000E-01 
2.42028239613000E-01 2.46170082459000E-01 2.50382724328000E-01 2.54667375431000E-01 
2.59025266664000E-01 2.63457649966000E-01 2.67965798675000E-01 2.72551007894000E-01 
2.77214594866000E-01 2.81957899349000E-01 2.86782284001000E-01 2.91689134777000E-01 
2.96679861318000E-01 3.01755897365000E-01 3.06918701163000E-01 3.12169755887000E-01 
3.17510570064000E-01 3.22942678004000E-01 3.28467640249000E-01 3.34087044013000E-01 
3.39802503642000E-01 3.45615661076000E-01 3.51528186324000E-01 3.57541777940000E-01 
3.63658163511000E-01 3.69879100158000E-01 3.76206375034000E-01 3.82641805844000E-01 
3.89187241363000E-01 3.95844561967000E-01 4.02615680175000E-01 4.09502541200000E-01 
4.16507123502000E-01 4.23631439363000E-01 4.30877535460000E-01 4.38247493458000E-01 
4.45743430603000E-01 4.53367500331000E-01 4.61121892891000E-01 4.69008835969000E-01 
4.77030595333000E-01 4.85189475477000E-01 4.93487820291000E-01 5.01928013729000E-01 
5.10512480493000E-01 5.19243686737000E-01 5.28124140766000E-01 5.37156393763000E-01 
5.46343040519000E-01 5.55686720181000E-01 5.65190117006000E-01 5.74855961137000E-01 
5.84687029383000E-01 5.94686146021000E-01 6.04856183603000E-01 6.15200063784000E-01 
6.25720758160000E-01 6.36421289124000E-01 6.47304730732000E-01 6.58374209584000E-01 
6.69632905728000E-01 6.81084053571000E-01 6.92730942804000E-01 7.04576919354000E-01 
7.16625386341000E-01 7.28879805056000E-01 7.41343695957000E-01 7.54020639678000E-01 
7.66914278059000E-01 7.80028315194000E-01 7.93366518492000E-01 8.06932719760000E-01 
8.20730816306000E-01 8.34764772055000E-01 8.49038618692000E-01 8.63556456817000E-01 
8.78322457123000E-01 8.93340861596000E-01 9.08615984734000E-01 9.24152214784000E-01 
9.39954015004000E-01 9.56025924946000E-01 9.72372561757000E-01 9.88998621512000E-01 
1.00590888055000E+00 1.02310819688000E+00 1.04060151150000E+00 1.05839384993000E+00 
1.07649032356000E+00 1.09489613114000E+00 1.11361656032000E+00 1.13265698911000E+00 
1.15202288745000E+00 1.17171981880000E+00 1.19175344170000E+00 1.21212951143000E+00 
1.23285388163000E+00 1.25393250602000E+00 1.27537144007000E+00 1.29717684278000E+00 
1.31935497842000E+00 1.34191221833000E+00 1.36485504278000E+00 1.38819004280000E+00 
1.41192392207000E+00 1.43606349888000E+00 1.46061570808000E+00 1.48558760302000E+00 
1.51098635765000E+00 1.53681926855000E+00 1.56309375701000E+00 1.58981737118000E+00 
1.61699778823000E+00 1.64464281659000E+00 1.67276039812000E+00 1.70135861047000E+00 
1.73044566934000E+00 1.76002993089000E+00 1.79011989411000E+00 1.82072420325000E+00 
1.85185165034000E+00 1.88351117770000E+00 1.91571188050000E+00 1.94846300937000E+00 
1.98177397308000E+00 2.01565434123000E+00 2.05011384699000E+00 2.08516238990000E+00 
2.12081003875000E+00 2.15706703439000E+00 2.19394379278000E+00 2.23145090789000E+00 
2.26959915479000E+00 2.30839949272000E+00 2.34786306828000E+00 2.38800121859000E+00 
2.42882547457000E+00 2.47034756422000E+00 2.51257941605000E+00 2.55553316244000E+00 
2.59922114318000E+00 2.64365590899000E+00 2.68885022510000E+00 2.73481707497000E+00 
2.78156966398000E+00 2.82912142326000E+00 2.87748601350000E+00 2.92667732891000E+00 
2.97670950120000E+00 3.02759690366000E+00 3.07935415524000E+00 3.13199612480000E+00 
3.18553793537000E+00 3.23999496846000E+00 3.29538286853000E+00 3.35171754745000E+00 
3.40901518909000E+00 3.46729225395000E+00 3.52656548390000E+00 3.58685190699000E+00 
3.64816884235000E+00 3.71053390514000E+00 3.77396501165000E+00 3.83848038439000E+00 
3.90409855740000E+00 3.97083838149000E+00 4.03871902974000E+00 4.10776000293000E+00 
4.17798113520000E+00 4.24940259972000E+00 4.32204491451000E+00 4.39592894829000E+00 
4.47107592651000E+00 4.54750743744000E+00 4.62524543839000E+00 4.70431226197000E+00 
4.78473062256000E+00 4.86652362278000E+00 4.94971476020000E+00 5.03432793400000E+00 
5.12038745192000E+00 5.20791803720000E+00 5.29694483567000E+00 5.38749342302000E+00 
5.47958981209000E+00 5.57326046041000E+00 5.66853227773000E+00 5.76543263380000E+00 
5.86398936623000E+00 5.96423078845000E+00 6.06618569789000E+00 6.16988338421000E+00 
6.27535363776000E+00 6.38262675809000E+00 6.49173356271000E+00 6.60270539588000E+00 
6.71557413766000E+00 6.83037221307000E+00 6.94713260136000E+00 7.06588884553000E+00 
7.18667506197000E+00 7.30952595020000E+00 7.43447680291000E+00 7.56156351607000E+00 
7.69082259922000E+00 7.82229118601000E+00 7.95600704480000E+00 8.09200858959000E+00 
8.23033489098000E+00 8.37102568744000E+00 8.51412139672000E+00 8.65966312744000E+00 
8.80769269093000E+00 8.95825261321000E+00 9.11138614724000E+00 9.26713728532000E+00 
9.42555077174000E+00 9.58667211563000E+00 9.75054760402000E+00 9.91722431518000E+00 
1.00867501321000E+01 1.02591737563000E+01 1.04345447217000E+01 1.06129134090000E+01 
1.07943310600000E+01 1.09788497926000E+01 1.11665226155000E+01 1.13574034433000E+01 
1.15515471125000E+01 1.17490093968000E+01 1.19498470232000E+01 1.21541176886000E+01 
1.23618800759000E+01 1.25731938712000E+01 1.27881197810000E+01 1.30067195492000E+01 
1.32290559754000E+01 1.34551929326000E+01 1.36851953854000E+01 1.39191294091000E+01 
1.41570622085000E+01 1.43990621370000E+01 1.46451987166000E+01 1.48955426575000E+01 
1.51501658787000E+01 1.54091415285000E+01 1.56725440055000E+01 1.59404489804000E+01 
1.62129334168000E+01 1.64900755945000E+01 1.67719551309000E+01 1.70586530045000E+01 
1.73502515782000E+01 1.76468346226000E+01 1.79484873402000E+01 1.82552963900000E+01 
1.85673499123000E+01 1.88847375540000E+01 1.92075504946000E+01 1.95358814719000E+01 
1.98698248089000E+01 2.02094764413000E+01 2.05549339443000E+01 2.09062965612000E+01 
2.12636652317000E+01 2.16271426208000E+01 2.19968331487000E+01 2.23728430202000E+01 
2.27552802556000E+01 2.31442547219000E+01 2.35398781638000E+01 2.39422642363000E+01 
2.43515285371000E+01 2.47677886400000E+01 2.51911641284000E+01 2.56217766299000E+01 
2.60597498512000E+01 2.65052096134000E+01 2.69582838886000E+01 2.74191028362000E+01 
2.78877988406000E+01 2.83645065490000E+01 2.88493629104000E+01 2.93425072147000E+01 
2.98440811326000E+01 3.03542287566000E+01 3.08730966423000E+01 3.14008338504000E+01 
3.19375919895000E+01 3.24835252599000E+01 3.30387904976000E+01 3.36035472197000E+01 
3.41779576697000E+01 3.47621868647000E+01 3.53564026424000E+01 3.59607757096000E+01 
3.65754796909000E+01 3.72006911788000E+01 3.78365897846000E+01 3.84833581896000E+01 
3.91411821978000E+01 3.98102507894000E+01 4.04907561748000E+01 4.11828938500000E+01 
4.18868626528000E+01 4.26028648199000E+01 4.33311060447000E+01 4.40717955369000E+01 
4.48251460823000E+01 4.55913741038000E+01 4.63706997241000E+01 4.71633468282000E+01 
4.79695431282000E+01 4.87895202289000E+01 4.96235136938000E+01 5.04717631130000E+01 
5.13345121722000E+01 5.22120087225000E+01 5.31045048517000E+01 5.40122569567000E+01 
5.49355258170000E+01 5.58745766699000E+01 5.68296792866000E+01 5.78011080496000E+01 
5.87891420316000E+01 5.97940650756000E+01 6.08161658765000E+01 6.18557380642000E+01 
6.29130802875000E+01 6.39884963006000E+01 6.50822950495000E+01 6.61947907615000E+01 
6.73263030351000E+01 6.84771569318000E+01 6.96476830698000E+01 7.08382177185000E+01 
7.20491028955000E+01 7.32806864646000E+01 7.45333222361000E+01 7.58073700679000E+01 
7.71031959693000E+01 7.84211722060000E+01 7.97616774070000E+01 8.11250966737000E+01 
8.25118216899000E+01 8.39222508350000E+01 8.53567892978000E+01 8.68158491936000E+01 
8.82998496821000E+01 8.98092170878000E+01 9.13443850228000E+01 9.29057945112000E+01 
9.44938941157000E+01 9.61091400665000E+01 9.77519963926000E+01 9.94229350547000E+01 
1.01122436081000E+02 1.02850987706000E+02 1.04609086509000E+02 1.06397237557000E+02 
1.08215954551000E+02 1.10065759974000E+02 1.11947185240000E+02 1.13860770844000E+02 
1.15807066524000E+02 1.17786631412000E+02 1.19800034199000E+02 1.21847853297000E+02 
1.23930677005000E+02 1.26049103677000E+02 1.28203741896000E+02 1.30395210649000E+02 
1.32624139501000E+02 1.34891168782000E+02 1.37196949764000E+02 1.39542144854000E+02 
1.41927427782000E+02 1.44353483792000E+02 1.46821009843000E+02 1.49330714809000E+02 
1.51883319679000E+02 1.54479557766000E+02 1.57120174920000E+02 1.59805929739000E+02 
1.62537593789000E+02 1.65315951823000E+02 1.68141802010000E+02 1.71015956162000E+02 
1.73939239968000E+02 1.76912493231000E+02 1.79936570109000E+02 1.83012339361000E+02 
1.86140684596000E+02 1.89322504527000E+02 1.92558713228000E+02 1.95850240401000E+02 
1.99198031638000E+02 2.02603048693000E+02 2.06066269763000E+02 
</PP_R>
    <PP_RAB>
4.66808319523000E-06 4.74787756261000E-06 4.82903590334000E-06 4.91158153264000E-06 
4.99553816427000E-06 5.08092991735000E-06 5.16778132327000E-06 5.25611733277000E-06 
5.34596332306000E-06 5.43734510517000E-06 5.53028893131000E-06 5.62482150245000E-06 
5.72096997595000E-06 5.81876197343000E-06 5.91822558862000E-06 6.01938939550000E-06 
6.12228245648000E-06 6.22693433073000E-06 6.33337508272000E-06 6.44163529082000E-06 
6.55174605608000E-06 6.66373901120000E-06 6.77764632959000E-06 6.89350073462000E-06 
7.01133550902000E-06 7.13118450443000E-06 7.25308215115000E-06 7.37706346803000E-06 
7.50316407248000E-06 7.63142019079000E-06 7.76186866843000E-06 7.89454698075000E-06 
8.02949324365000E-06 8.16674622458000E-06 8.30634535367000E-06 8.44833073504000E-06 
8.59274315835000E-06 8.73962411050000E-06 8.88901578753000E-06 9.04096110678000E-06 
9.19550371922000E-06 9.35268802193000E-06 9.51255917092000E-06 9.67516309409000E-06 
9.84054650440000E-06 1.00087569133000E-05 1.01798426444000E-05 1.03538528472000E-05 
1.05308375117000E-05 1.07108474820000E-05 1.08939344715000E-05 1.10801510775000E-05 
1.12695507966000E-05 1.14621880395000E-05 1.16581181473000E-05 1.18573974068000E-05 
1.20600830671000E-05 1.22662333559000E-05 1.24759074962000E-05 1.26891657233000E-05 
1.29060693022000E-05 1.31266805450000E-05 1.33510628292000E-05 1.35792806153000E-05 
1.38113994660000E-05 1.40474860645000E-05 1.42876082339000E-05 1.45318349567000E-05 
1.47802363944000E-05 1.50328839081000E-05 1.52898500784000E-05 1.55512087268000E-05 
1.58170349365000E-05 1.60874050743000E-05 1.63623968122000E-05 1.66420891501000E-05 
1.69265624382000E-05 1.72158984002000E-05 1.75101801566000E-05 1.78094922489000E-05 
1.81139206637000E-05 1.84235528575000E-05 1.87384777814000E-05 1.90587859074000E-05 
1.93845692538000E-05 1.97159214118000E-05 2.00529375725000E-05 2.03957145542000E-05 
2.07443508300000E-05 2.10989465563000E-05 2.14596036017000E-05 2.18264255760000E-05 
2.21995178599000E-05 2.25789876358000E-05 2.29649439179000E-05 2.33574975840000E-05 
2.37567614071000E-05 2.41628500881000E-05 2.45758802884000E-05 2.49959706635000E-05 
2.54232418972000E-05 2.58578167365000E-05 2.62998200261000E-05 2.67493787450000E-05 
2.72066220429000E-05 2.76716812768000E-05 2.81446900492000E-05 2.86257842465000E-05 
2.91151020776000E-05 2.96127841142000E-05 3.01189733307000E-05 3.06338151453000E-05 
3.11574574622000E-05 3.16900507138000E-05 3.22317479037000E-05 3.27827046510000E-05 
3.33430792350000E-05 3.39130326405000E-05 3.44927286040000E-05 3.50823336610000E-05 
3.56820171935000E-05 3.62919514792000E-05 3.69123117402000E-05 3.75432761940000E-05 
3.81850261047000E-05 3.88377458344000E-05 3.95016228969000E-05 4.01768480114000E-05 
4.08636151568000E-05 4.15621216280000E-05 4.22725680926000E-05 4.29951586480000E-05 
4.37301008804000E-05 4.44776059247000E-05 4.52378885244000E-05 4.60111670941000E-05 
4.67976637818000E-05 4.75976045327000E-05 4.84112191543000E-05 4.92387413824000E-05 
5.00804089481000E-05 5.09364636461000E-05 5.18071514046000E-05 5.26927223551000E-05 
5.35934309050000E-05 5.45095358106000E-05 5.54413002511000E-05 5.63889919042000E-05 
5.73528830236000E-05 5.83332505164000E-05 5.93303760233000E-05 6.03445459992000E-05 
6.13760517954000E-05 6.24251897435000E-05 6.34922612408000E-05 6.45775728360000E-05 
6.56814363183000E-05 6.68041688063000E-05 6.79460928392000E-05 6.91075364698000E-05 
7.02888333583000E-05 7.14903228686000E-05 7.27123501651000E-05 7.39552663129000E-05 
7.52194283775000E-05 7.65051995284000E-05 7.78129491426000E-05 7.91430529114000E-05 
8.04958929478000E-05 8.18718578966000E-05 8.32713430458000E-05 8.46947504406000E-05 
8.61424889982000E-05 8.76149746260000E-05 8.91126303406000E-05 9.06358863895000E-05 
9.21851803747000E-05 9.37609573783000E-05 9.53636700906000E-05 9.69937789400000E-05 
9.86517522251000E-05 1.00338066250000E-04 1.02053205459000E-04 1.03797662580000E-04 
1.05571938760000E-04 1.07376543715000E-04 1.09211995874000E-04 1.11078822526000E-04 
1.12977559974000E-04 1.14908753688000E-04 1.16872958465000E-04 1.18870738580000E-04 
1.20902667958000E-04 1.22969330334000E-04 1.25071319418000E-04 1.27209239072000E-04 
1.29383703479000E-04 1.31595337321000E-04 1.33844775956000E-04 1.36132665605000E-04 
1.38459663535000E-04 1.40826438247000E-04 1.43233669670000E-04 1.45682049354000E-04 
1.48172280672000E-04 1.50705079019000E-04 1.53281172018000E-04 1.55901299733000E-04 
1.58566214874000E-04 1.61276683020000E-04 1.64033482836000E-04 1.66837406298000E-04 
1.69689258918000E-04 1.72589859979000E-04 1.75540042766000E-04 1.78540654811000E-04 
1.81592558131000E-04 1.84696629480000E-04 1.87853760595000E-04 1.91064858462000E-04 
1.94330845564000E-04 1.97652660158000E-04 2.01031256537000E-04 2.04467605306000E-04 
2.07962693661000E-04 2.11517525673000E-04 2.15133122578000E-04 2.18810523066000E-04 
2.22550783582000E-04 2.26354978633000E-04 2.30224201089000E-04 2.34159562502000E-04 
2.38162193427000E-04 2.42233243741000E-04 2.46373882979000E-04 2.50585300666000E-04 
2.54868706660000E-04 2.59225331502000E-04 2.63656426766000E-04 2.68163265419000E-04 
2.72747142189000E-04 2.77409373935000E-04 2.82151300026000E-04 2.86974282726000E-04 
2.91879707584000E-04 2.96868983834000E-04 3.01943544798000E-04 3.07104848300000E-04 
3.12354377082000E-04 3.17693639232000E-04 3.23124168618000E-04 3.28647525324000E-04 
3.34265296104000E-04 3.39979094836000E-04 3.45790562983000E-04 3.51701370067000E-04 
3.57713214149000E-04 3.63827822315000E-04 3.70046951175000E-04 3.76372387362000E-04 
3.82805948054000E-04 3.89349481487000E-04 3.96004867491000E-04 4.02774018031000E-04 
4.09658877753000E-04 4.16661424543000E-04 4.23783670097000E-04 4.31027660499000E-04 
4.38395476807000E-04 4.45889235652000E-04 4.53511089847000E-04 4.61263229001000E-04 
4.69147880156000E-04 4.77167308418000E-04 4.85323817614000E-04 4.93619750952000E-04 
5.02057491692000E-04 5.10639463834000E-04 5.19368132813000E-04 5.28246006206000E-04 
5.37275634455000E-04 5.46459611597000E-04 5.55800576011000E-04 5.65301211175000E-04 
5.74964246438000E-04 5.84792457803000E-04 5.94788668725000E-04 6.04955750922000E-04 
6.15296625199000E-04 6.25814262291000E-04 6.36511683710000E-04 6.47391962618000E-04 
6.58458224710000E-04 6.69713649108000E-04 6.81161469278000E-04 6.92804973958000E-04 
7.04647508099000E-04 7.16692473835000E-04 7.28943331449000E-04 7.41403600377000E-04 
7.54076860213000E-04 7.66966751738000E-04 7.80076977970000E-04 7.93411305222000E-04 
8.06973564189000E-04 8.20767651046000E-04 8.34797528566000E-04 8.49067227262000E-04 
8.63580846542000E-04 8.78342555889000E-04 8.93356596055000E-04 9.08627280284000E-04 
9.24158995548000E-04 9.39956203808000E-04 9.56023443297000E-04 9.72365329820000E-04 
9.88986558087000E-04 1.00589190305000E-03 1.02308622130000E-03 1.04057445242000E-03 
1.05836162045000E-03 1.07645283528000E-03 1.09485329419000E-03 1.11356828326000E-03 
1.13260317895000E-03 1.15196344962000E-03 1.17165465710000E-03 1.19168245828000E-03 
1.21205260678000E-03 1.23277095454000E-03 1.25384345353000E-03 1.27527615749000E-03 
1.29707522361000E-03 1.31924691434000E-03 1.34179759918000E-03 1.36473375651000E-03 
1.38806197543000E-03 1.41178895771000E-03 1.43592151963000E-03 1.46046659401000E-03 
1.48543123219000E-03 1.51082260602000E-03 1.53664800994000E-03 1.56291486311000E-03 
1.58963071147000E-03 1.61680322997000E-03 1.64444022475000E-03 1.67254963539000E-03 
1.70113953717000E-03 1.73021814343000E-03 1.75979380788000E-03 1.78987502703000E-03 
1.82047044264000E-03 1.85158884419000E-03 1.88323917137000E-03 1.91543051674000E-03 
1.94817212822000E-03 1.98147341185000E-03 2.01534393446000E-03 2.04979342638000E-03 
2.08483178428000E-03 2.12046907401000E-03 2.15671553348000E-03 2.19358157558000E-03 
2.23107779123000E-03 2.26921495234000E-03 2.30800401501000E-03 2.34745612256000E-03 
2.38758260884000E-03 2.42839500139000E-03 2.46990502484000E-03 2.51212460421000E-03 
2.55506586836000E-03 2.59874115349000E-03 2.64316300667000E-03 2.68834418944000E-03 
2.73429768147000E-03 2.78103668431000E-03 2.82857462518000E-03 2.87692516080000E-03 
2.92610218134000E-03 2.97611981443000E-03 3.02699242914000E-03 3.07873464021000E-03 
3.13136131216000E-03 3.18488756362000E-03 3.23932877164000E-03 3.29470057614000E-03 
3.35101888436000E-03 3.40829987547000E-03 3.46656000517000E-03 3.52581601048000E-03 
3.58608491450000E-03 3.64738403132000E-03 3.70973097100000E-03 3.77314364460000E-03 
3.83764026935000E-03 3.90323937390000E-03 3.96995980358000E-03 4.03782072589000E-03 
4.10684163596000E-03 4.17704236217000E-03 4.24844307181000E-03 4.32106427694000E-03 
4.39492684022000E-03 4.47005198093000E-03 4.54646128108000E-03 4.62417669158000E-03 
4.70322053855000E-03 4.78361552978000E-03 4.86538476119000E-03 4.94855172348000E-03 
5.03314030893000E-03 5.11917481819000E-03 5.20667996732000E-03 5.29568089485000E-03 
5.38620316902000E-03 5.47827279514000E-03 5.57191622302000E-03 5.66716035461000E-03 
5.76403255170000E-03 5.86256064381000E-03 5.96277293615000E-03 6.06469821777000E-03 
6.16836576982000E-03 6.27380537400000E-03 6.38104732106000E-03 6.49012241954000E-03 
6.60106200460000E-03 6.71389794704000E-03 6.82866266244000E-03 6.94538912048000E-03 
7.06411085441000E-03 7.18486197070000E-03 7.30767715880000E-03 7.43259170113000E-03 
7.55964148324000E-03 7.68886300406000E-03 7.82029338643000E-03 7.95397038776000E-03 
8.08993241087000E-03 8.22821851502000E-03 8.36886842712000E-03 8.51192255317000E-03 
8.65742198986000E-03 8.80540853637000E-03 8.95592470635000E-03 9.10901374019000E-03 
9.26471961742000E-03 9.42308706931000E-03 9.58416159177000E-03 9.74798945840000E-03 
9.91461773376000E-03 1.00840942869000E-02 1.02564678053000E-02 1.04317878083000E-02 
1.06101046622000E-02 1.07914695938000E-02 1.09759347058000E-02 1.11635529914000E-02 
1.13543783498000E-02 1.15484656013000E-02 1.17458705036000E-02 1.19466497672000E-02 
1.21508610720000E-02 1.23585630841000E-02 1.25698154723000E-02 1.27846789252000E-02 
1.30032151689000E-02 1.32254869848000E-02 1.34515582271000E-02 1.36814938418000E-02 
1.39153598850000E-02 1.41532235418000E-02 1.43951531458000E-02 1.46412181987000E-02 
1.48914893904000E-02 1.51460386187000E-02 1.54049390109000E-02 1.56682649439000E-02 
1.59360920663000E-02 1.62084973196000E-02 1.64855589604000E-02 1.67673565834000E-02 
1.70539711434000E-02 1.73454849794000E-02 1.76419818375000E-02 1.79435468956000E-02 
1.82502667876000E-02 1.85622296280000E-02 1.88795250378000E-02 1.92022441698000E-02 
1.95304797349000E-02 1.98643260290000E-02 2.02038789595000E-02 2.05492360735000E-02 
2.09004965854000E-02 2.12577614055000E-02 2.16211331692000E-02 2.19907162659000E-02 
2.23666168700000E-02 2.27489429702000E-02 2.31378044015000E-02 2.35333128763000E-02 
2.39355820166000E-02 2.43447273863000E-02 2.47608665251000E-02 2.51841189818000E-02 
2.56146063485000E-02 2.60524522959000E-02 2.64977826088000E-02 2.69507252218000E-02 
2.74114102567000E-02 2.78799700593000E-02 2.83565392378000E-02 2.88412547013000E-02 
2.93342556991000E-02 2.98356838610000E-02 3.03456832376000E-02 3.08644003417000E-02 
3.13919841907000E-02 3.19285863494000E-02 3.24743609731000E-02 3.30294648522000E-02 
3.35940574575000E-02 3.41683009854000E-02 3.47523604050000E-02 3.53464035053000E-02 
3.59506009433000E-02 3.65651262933000E-02 3.71901560965000E-02 3.78258699118000E-02 
3.84724503677000E-02 3.91300832140000E-02 3.97989573761000E-02 4.04792650085000E-02 
4.11712015504000E-02 4.18749657818000E-02 4.25907598806000E-02 4.33187894805000E-02 
4.40592637304000E-02 4.48123953542000E-02 4.55784007119000E-02 4.63574998623000E-02 
4.71499166253000E-02 4.79558786469000E-02 4.87756174645000E-02 4.96093685732000E-02 
5.04573714934000E-02 5.13198698401000E-02 5.21971113923000E-02 5.30893481646000E-02 
5.39968364792000E-02 5.49198370401000E-02 5.58586150074000E-02 5.68134400740000E-02 