<UPF version="2.0.1">
  <PP_INFO>
Generated using Vanderbilt code, version   7  3  6
Author: kfg        Generation date:   15    6   15
Automatically converted from original USPP format to UPF.v1.

Futher converted to UPF.v2 format.
Convert Q_IJ to Q_IJL use the same routine as 'upflib/upf_to_internal.f90' of QE.
The conversion is done by using PseudoPotentialIO.jl package.
Converted by: JYU on 2024-04-30

1        The Pseudo was generated with a Scalar-Relativistic Calculation
1.55000000000E+00    Local Potential cutoff radius
nl pn  l   occ               Rcut            Rcut US             E pseu
3S  3  0  2.00      0.00000000000      1.55000000000     -8.01763435900
3P  3  1  6.00      0.00000000000      1.55000000000     -5.50619142600
3D  3  2  5.00      0.00000000000      1.65000000000     -1.58252825500
4S  4  0  2.00      0.00000000000      1.55000000000     -1.03276873800
4P  4  1  0.00      0.00000000000      1.55000000000     -0.62444382600
</PP_INFO>
  <PP_HEADER element="Fe" pseudo_type="US" relativistic="scalar" is_ultrasoft="T" is_paw="F" is_coulomb="F" has_so="F" has_wfc="F" has_gipaw="F" core_correction="T" functional="PBE" z_valence="16.0" total_psenergy="-248.633873662" wfc_cutoff="0.0" rho_cutoff="0.0" l_max="2" mesh_size="861" number_of_wfc="5" number_of_proj="6"/>
  <PP_MESH>
    <PP_R>
0.00000000000000E+00 1.62964650308000E-06 3.28714953876000E-06 4.97298527561000E-06 
6.68763802161000E-06 8.43160036331000E-06 1.02053733073000E-05 1.20094664243000E-05 
1.38443979954000E-05 1.57106951607000E-05 1.76088940715000E-05 1.95395400435000E-05 
2.15031877140000E-05 2.35004012009000E-05 2.55317542651000E-05 2.75978304748000E-05 
2.96992233740000E-05 3.18365366520000E-05 3.40103843176000E-05 3.62213908752000E-05 
3.84701915043000E-05 4.07574322416000E-05 4.30837701672000E-05 4.54498735930000E-05 
4.78564222547000E-05 5.03041075071000E-05 5.27936325230000E-05 5.53257124945000E-05 
5.79010748393000E-05 6.05204594093000E-05 6.31846187028000E-05 6.58943180813000E-05 
6.86503359889000E-05 7.14534641764000E-05 7.43045079282000E-05 7.72042862939000E-05 
8.01536323238000E-05 8.31533933080000E-05 8.62044310196000E-05 8.93076219629000E-05 
9.24638576245000E-05 9.56740447299000E-05 9.89391055036000E-05 1.02259977935000E-04 
1.05637616045000E-04 1.09072990165000E-04 1.12567087211000E-04 1.16120910970000E-04 
1.19735482386000E-04 1.23411839856000E-04 1.27151039526000E-04 1.30954155596000E-04 
1.34822280628000E-04 1.38756525859000E-04 1.42758021521000E-04 1.46827917167000E-04 
1.50967381999000E-04 1.55177605205000E-04 1.59459796301000E-04 1.63815185478000E-04 
1.68245023954000E-04 1.72750584336000E-04 1.77333160986000E-04 1.81994070387000E-04 
1.86734651530000E-04 1.91556266292000E-04 1.96460299828000E-04 2.01448160974000E-04 
2.06521282646000E-04 2.11681122252000E-04 2.16929162114000E-04 2.22266909895000E-04 
2.27695899024000E-04 2.33217689145000E-04 2.38833866562000E-04 2.44546044694000E-04 
2.50355864540000E-04 2.56264995147000E-04 2.62275134095000E-04 2.68388007981000E-04 
2.74605372915000E-04 2.80929015025000E-04 2.87360750971000E-04 2.93902428468000E-04 
3.00555926811000E-04 3.07323157423000E-04 3.14206064398000E-04 3.21206625062000E-04 
3.28326850540000E-04 3.35568786336000E-04 3.42934512917000E-04 3.50426146314000E-04 
3.58045838729000E-04 3.65795779151000E-04 3.73678193989000E-04 3.81695347708000E-04 
3.89849543481000E-04 3.98143123851000E-04 4.06578471402000E-04 4.15158009448000E-04 
4.23884202722000E-04 4.32759558092000E-04 4.41786625276000E-04 4.50967997574000E-04 
4.60306312619000E-04 4.69804253127000E-04 4.79464547672000E-04 4.89289971470000E-04 
4.99283347176000E-04 5.09447545692000E-04 5.19785486997000E-04 5.30300140980000E-04 
5.40994528299000E-04 5.51871721244000E-04 5.62934844623000E-04 5.74187076655000E-04 
5.85631649890000E-04 5.97271852133000E-04 6.09111027387000E-04 6.21152576820000E-04 
6.33399959735000E-04 6.45856694568000E-04 6.58526359898000E-04 6.71412595475000E-04 
6.84519103266000E-04 6.97849648515000E-04 7.11408060831000E-04 7.25198235283000E-04 
7.39224133522000E-04 7.53489784916000E-04 7.67999287712000E-04 7.82756810208000E-04 
7.97766591956000E-04 8.13032944975000E-04 8.28560254992000E-04 8.44352982704000E-04 
8.60415665056000E-04 8.76752916546000E-04 8.93369430549000E-04 9.10269980669000E-04 
9.27459422106000E-04 9.44942693055000E-04 9.62724816121000E-04 9.80810899764000E-04 
9.99206139766000E-04 1.01791582072000E-03 1.03694531756000E-03 1.05630009710000E-03 
1.07598571957000E-03 1.09600784029000E-03 1.11637221122000E-03 1.13708468265000E-03 
1.15815120487000E-03 1.17957782989000E-03 1.20137071316000E-03 1.22353611536000E-03 
1.24608040417000E-03 1.26901005613000E-03 1.29233165850000E-03 1.31605191111000E-03 
1.34017762833000E-03 1.36471574102000E-03 1.38967329850000E-03 1.41505747059000E-03 
1.44087554968000E-03 1.46713495280000E-03 1.49384322377000E-03 1.52100803536000E-03 
1.54863719149000E-03 1.57673862948000E-03 1.60532042233000E-03 1.63439078105000E-03 
1.66395805698000E-03 1.69403074422000E-03 1.72461748208000E-03 1.75572705754000E-03 
1.78736840778000E-03 1.81955062274000E-03 1.85228294775000E-03 1.88557478617000E-03 
1.91943570211000E-03 1.95387542315000E-03 1.98890384316000E-03 2.02453102512000E-03 
2.06076720403000E-03 2.09762278985000E-03 2.13510837048000E-03 2.17323471479000E-03 
2.21201277575000E-03 2.25145369353000E-03 2.29156879877000E-03 2.33236961574000E-03 
2.37386786574000E-03 2.41607547041000E-03 2.45900455517000E-03 2.50266745272000E-03 
2.54707670657000E-03 2.59224507464000E-03 2.63818553292000E-03 2.68491127922000E-03 
2.73243573694000E-03 2.78077255895000E-03 2.82993563146000E-03 2.87993907809000E-03 
2.93079726385000E-03 2.98252479932000E-03 3.03513654481000E-03 3.08864761467000E-03 
3.14307338159000E-03 3.19842948103000E-03 3.25473181574000E-03 3.31199656029000E-03 
3.37024016572000E-03 3.42947936431000E-03 3.48973117431000E-03 3.55101290493000E-03 
3.61334216120000E-03 3.67673684912000E-03 3.74121518075000E-03 3.80679567948000E-03 
3.87349718531000E-03 3.94133886029000E-03 4.01034019402000E-03 4.08052100926000E-03 
4.15190146758000E-03 4.22450207522000E-03 4.29834368893000E-03 4.37344752197000E-03 
4.44983515022000E-03 4.52752851836000E-03 4.60654994621000E-03 4.68692213508000E-03 
4.76866817435000E-03 4.85181154807000E-03 4.93637614173000E-03 5.02238624911000E-03 
5.10986657923000E-03 5.19884226350000E-03 5.28933886293000E-03 5.38138237542000E-03 
5.47499924330000E-03 5.57021636088000E-03 5.66706108221000E-03 5.76556122888000E-03 
5.86574509810000E-03 5.96764147074000E-03 6.07127961966000E-03 6.17668931811000E-03 
6.28390084823000E-03 6.39294500984000E-03 6.50385312920000E-03 6.61665706808000E-03 
6.73138923287000E-03 6.84808258389000E-03 6.96677064489000E-03 7.08748751264000E-03 
7.21026786678000E-03 7.33514697972000E-03 7.46216072681000E-03 7.59134559665000E-03 
7.72273870154000E-03 7.85637778819000E-03 7.99230124851000E-03 8.13054813069000E-03 
8.27115815039000E-03 8.41417170213000E-03 8.55962987095000E-03 8.70757444416000E-03 
8.85804792338000E-03 9.01109353672000E-03 9.16675525123000E-03 9.32507778550000E-03 
9.48610662255000E-03 9.64988802282000E-03 9.81646903756000E-03 9.98589752226000E-03 
1.01582221505000E-02 1.03334924277000E-02 1.05117587057000E-02 1.06930721969000E-02 
1.08774849892000E-02 1.10650500608000E-02 1.12558212956000E-02 1.14498534984000E-02 
1.16472024108000E-02 1.18479247276000E-02 1.20520781122000E-02 1.22597212139000E-02 
1.24709136848000E-02 1.26857161961000E-02 1.29041904567000E-02 1.31263992298000E-02 
1.33524063517000E-02 1.35822767500000E-02 1.38160764619000E-02 1.40538726536000E-02 
1.42957336394000E-02 1.45417289011000E-02 1.47919291086000E-02 1.50464061394000E-02 
1.53052330999000E-02 1.55684843460000E-02 1.58362355048000E-02 1.61085634960000E-02 
1.63855465541000E-02 1.66672642511000E-02 1.69537975189000E-02 1.72452286731000E-02 
1.75416414361000E-02 1.78431209616000E-02 1.81497538588000E-02 1.84616282175000E-02 
1.87788336331000E-02 1.91014612325000E-02 1.94296037005000E-02 1.97633553061000E-02 
2.01028119295000E-02 2.04480710902000E-02 2.07992319744000E-02 2.11563954638000E-02 
2.15196641646000E-02 2.18891424369000E-02 2.22649364246000E-02 2.26471540860000E-02 
2.30359052249000E-02 2.34313015220000E-02 2.38334565670000E-02 2.42424858912000E-02 
2.46585070009000E-02 2.50816394108000E-02 2.55120046788000E-02 2.59497264404000E-02 
2.63949304446000E-02 2.68477445899000E-02 2.73082989611000E-02 2.77767258665000E-02 
2.82531598761000E-02 2.87377378602000E-02 2.92305990287000E-02 2.97318849709000E-02 
3.02417396968000E-02 3.07603096776000E-02 3.12877438886000E-02 3.18241938513000E-02 
3.23698136774000E-02 3.29247601129000E-02 3.34891925833000E-02 3.40632732391000E-02 
3.46471670024000E-02 3.52410416148000E-02 3.58450676848000E-02 3.64594187375000E-02 
3.70842712641000E-02 3.77198047725000E-02 3.83662018394000E-02 3.90236481619000E-02 
3.96923326118000E-02 4.03724472892000E-02 4.10641875777000E-02 4.17677522011000E-02 
4.24833432799000E-02 4.32111663894000E-02 4.39514306193000E-02 4.47043486330000E-02 
4.54701367294000E-02 4.62490149045000E-02 4.70412069151000E-02 4.78469403424000E-02 
4.86664466583000E-02 4.94999612908000E-02 5.03477236928000E-02 5.12099774099000E-02 
5.20869701508000E-02 5.29789538588000E-02 5.38861847834000E-02 5.48089235544000E-02 
5.57474352570000E-02 5.67019895074000E-02 5.76728605304000E-02 5.86603272387000E-02 
5.96646733122000E-02 6.06861872801000E-02 6.17251626037000E-02 6.27818977605000E-02 
6.38566963299000E-02 6.49498670809000E-02 6.60617240602000E-02 6.71925866829000E-02 
6.83427798239000E-02 6.95126339114000E-02 7.07024850218000E-02 7.19126749764000E-02 
7.31435514393000E-02 7.43954680176000E-02 7.56687843625000E-02 7.69638662733000E-02 
7.82810858019000E-02 7.96208213601000E-02 8.09834578278000E-02 8.23693866643000E-02 
8.37790060200000E-02 8.52127208513000E-02 8.66709430367000E-02 8.81540914953000E-02 
8.96625923068000E-02 9.11968788345000E-02 9.27573918491000E-02 9.43445796558000E-02 
9.59588982229000E-02 9.76008113130000E-02 9.92707906159000E-02 1.00969315884000E-01 
1.02696875072000E-01 1.04453964472000E-01 1.06241088864000E-01 1.08058761653000E-01 
1.09907505022000E-01 1.11787850078000E-01 1.13700337009000E-01 1.15645515235000E-01 
1.17623943568000E-01 1.19636190373000E-01 1.21682833728000E-01 1.23764461594000E-01 
1.25881671985000E-01 1.28035073132000E-01 1.30225283666000E-01 1.32452932792000E-01 
1.34718660472000E-01 1.37023117604000E-01 1.39366966214000E-01 1.41750879646000E-01 
1.44175542751000E-01 1.46641652087000E-01 1.49149916121000E-01 1.51701055428000E-01 
1.54295802901000E-01 1.56934903961000E-01 1.59619116770000E-01 1.62349212451000E-01 
1.65125975308000E-01 1.67950203050000E-01 1.70822707024000E-01 1.73744312445000E-01 
1.76715858632000E-01 1.79738199255000E-01 1.82812202573000E-01 1.85938751687000E-01 
1.89118744795000E-01 1.92353095447000E-01 1.95642732810000E-01 1.98988601932000E-01 
2.02391664017000E-01 2.05852896700000E-01 2.09373294324000E-01 2.12953868233000E-01 
2.16595647056000E-01 2.20299677005000E-01 2.24067022176000E-01 2.27898764856000E-01 
2.31796005829000E-01 2.35759864698000E-01 2.39791480201000E-01 2.43892010546000E-01 
2.48062633733000E-01 2.52304547904000E-01 2.56618971677000E-01 2.61007144504000E-01 
2.65470327020000E-01 2.70009801413000E-01 2.74626871786000E-01 2.79322864532000E-01 
2.84099128721000E-01 2.88957036481000E-01 2.93897983393000E-01 2.98923388898000E-01 
3.04034696696000E-01 3.09233375168000E-01 3.14520917793000E-01 3.19898843579000E-01 
3.25368697501000E-01 3.30932050943000E-01 3.36590502147000E-01 3.42345676677000E-01 
3.48199227884000E-01 3.54152837380000E-01 3.60208215521000E-01 3.66367101900000E-01 
3.72631265847000E-01 3.79002506934000E-01 3.85482655495000E-01 3.92073573153000E-01 
3.98777153349000E-01 4.05595321893000E-01 4.12530037513000E-01 4.19583292418000E-01 
4.26757112873000E-01 4.34053559776000E-01 4.41474729256000E-01 4.49022753271000E-01 
4.56699800222000E-01 4.64508075577000E-01 4.72449822502000E-01 4.80527322506000E-01 
4.88742896101000E-01 4.97098903460000E-01 5.05597745103000E-01 5.14241862583000E-01 
5.23033739187000E-01 5.31975900652000E-01 5.41070915888000E-01 5.50321397715000E-01 
5.59730003620000E-01 5.69299436511000E-01 5.79032445503000E-01 5.88931826700000E-01 
5.99000424003000E-01 6.09241129924000E-01 6.19656886422000E-01 6.30250685740000E-01 
6.41025571273000E-01 6.51984638436000E-01 6.63131035558000E-01 6.74467964783000E-01 
6.85998682991000E-01 6.97726502734000E-01 7.09654793188000E-01 7.21786981120000E-01 
7.34126551873000E-01 7.46677050367000E-01 7.59442082117000E-01 7.72425314270000E-01 
7.85630476656000E-01 7.99061362865000E-01 8.12721831329000E-01 8.26615806436000E-01 
8.40747279657000E-01 8.55120310691000E-01 8.69739028632000E-01 8.84607633153000E-01 
8.99730395718000E-01 9.15111660803000E-01 9.30755847149000E-01 9.46667449027000E-01 
9.62851037532000E-01 9.79311261898000E-01 9.96052850826000E-01 1.01308061385000E+00 
1.03039944272000E+00 1.04801431280000E+00 1.06593028451000E+00 1.08415250474000E+00 
1.10268620840000E+00 1.12153671985000E+00 1.14070945449000E+00 1.16020992027000E+00 
1.18004371930000E+00 1.20021654944000E+00 1.22073420597000E+00 1.24160258319000E+00 
1.26282767620000E+00 1.28441558255000E+00 1.30637250403000E+00 1.32870474844000E+00 
1.35141873141000E+00 1.37452097821000E+00 1.39801812568000E+00 1.42191692409000E+00 
1.44622423911000E+00 1.47094705375000E+00 1.49609247041000E+00 1.52166771287000E+00 
1.54768012841000E+00 1.57413718988000E+00 1.60104649790000E+00 1.62841578299000E+00 
1.65625290781000E+00 1.68456586942000E+00 1.71336280161000E+00 1.74265197715000E+00 
1.77244181028000E+00 1.80274085903000E+00 1.83355782773000E+00 1.86490156951000E+00 
1.89678108880000E+00 1.92920554399000E+00 1.96218424998000E+00 1.99572668093000E+00 
2.02984247293000E+00 2.06454142677000E+00 2.09983351081000E+00 2.13572886376000E+00 
2.17223779768000E+00 2.20937080088000E+00 2.24713854094000E+00 2.28555186780000E+00 
2.32462181688000E+00 2.36435961222000E+00 2.40477666970000E+00 2.44588460038000E+00 
2.48769521376000E+00 2.53022052122000E+00 2.57347273947000E+00 2.61746429402000E+00 
2.66220782281000E+00 2.70771617977000E+00 2.75400243859000E+00 2.80107989640000E+00 
2.84896207765000E+00 2.89766273796000E+00 2.94719586809000E+00 2.99757569796000E+00 
3.04881670071000E+00 3.10093359688000E+00 3.15394135866000E+00 3.20785521415000E+00 
3.26269065176000E+00 3.31846342464000E+00 3.37518955524000E+00 3.43288533987000E+00 
3.49156735342000E+00 3.55125245410000E+00 3.61195778827000E+00 3.67370079541000E+00 
3.73649921309000E+00 3.80037108207000E+00 3.86533475152000E+00 3.93140888423000E+00 
3.99861246202000E+00 4.06696479119000E+00 4.13648550803000E+00 4.20719458450000E+00 
4.27911233395000E+00 4.35225941696000E+00 4.42665684727000E+00 4.50232599781000E+00 
4.57928860689000E+00 4.65756678435000E+00 4.73718301801000E+00 4.81816018007000E+00 
4.90052153371000E+00 4.98429073974000E+00 5.06949186344000E+00 5.15614938144000E+00 
5.24428818877000E+00 5.33393360600000E+00 5.42511138653000E+00 5.51784772397000E+00 
5.61216925968000E+00 5.70810309040000E+00 5.80567677607000E+00 5.90491834772000E+00 
6.00585631554000E+00 6.10851967705000E+00 6.21293792544000E+00 6.31914105806000E+00 
6.42715958502000E+00 6.53702453794000E+00 6.64876747890000E+00 6.76242050949000E+00 
6.87801628002000E+00 6.99558799892000E+00 7.11516944227000E+00 7.23679496350000E+00 
7.36049950328000E+00 7.48631859952000E+00 7.61428839762000E+00 7.74444566082000E+00 
7.87682778079000E+00 8.01147278834000E+00 8.14841936438000E+00 8.28770685102000E+00 
8.42937526285000E+00 8.57346529846000E+00 8.72001835214000E+00 8.86907652574000E+00 
9.02068264079000E+00 9.17488025079000E+00 9.33171365374000E+00 9.49122790483000E+00 
9.65346882942000E+00 9.81848303620000E+00 9.98631793054000E+00 1.01570217282000E+01 
1.03306434690000E+01 1.05072330311000E+01 1.06868411454000E+01 1.08695194097000E+01 
1.10553203041000E+01 1.12442972053000E+01 1.14365044030000E+01 1.16319971145000E+01 
1.18308315010000E+01 1.20330646839000E+01 1.22387547608000E+01 1.24479608226000E+01 
1.26607429699000E+01 1.28771623311000E+01 1.30972810793000E+01 1.33211624502000E+01 
1.35488707608000E+01 1.37804714271000E+01 1.40160309836000E+01 1.42556171019000E+01 
1.44992986106000E+01 1.47471455146000E+01 1.49992290155000E+01 1.52556215320000E+01 
1.55163967208000E+01 1.57816294975000E+01 1.60513960583000E+01 1.63257739021000E+01 
1.66048418521000E+01 1.68886800792000E+01 1.71773701248000E+01 1.74709949237000E+01 
1.77696388288000E+01 1.80733876347000E+01 1.83823286025000E+01 1.86965504850000E+01 
1.90161435520000E+01 1.93411996165000E+01 1.96718120608000E+01 2.00080758633000E+01 
2.03500876263000E+01 2.06979456031000E+01 2.10517497265000E+01 2.14116016376000E+01 
2.17776047149000E+01 2.21498641040000E+01 2.25284867479000E+01 2.29135814174000E+01 
2.33052587429000E+01 2.37036312456000E+01 2.41088133703000E+01 2.45209215179000E+01 
2.49400740792000E+01 2.53663914685000E+01 2.57999961587000E+01 2.62410127158000E+01 
2.66895678355000E+01 2.71457903790000E+01 2.76098114101000E+01 2.80817642332000E+01 
2.85617844311000E+01 2.90500099044000E+01 2.95465809108000E+01 3.00516401055000E+01 
3.05653325823000E+01 3.10878059150000E+01 3.16192102002000E+01 3.21596981000000E+01 
3.27094248862000E+01 3.32685484845000E+01 3.38372295205000E+01 3.44156313651000E+01 
3.50039201820000E+01 3.56022649752000E+01 3.62108376376000E+01 3.68298130003000E+01 
3.74593688830000E+01 3.80996861449000E+01 3.87509487368000E+01 3.94133437538000E+01 
4.00870614891000E+01 4.07722954888000E+01 4.14692426075000E+01 4.21781030645000E+01 
4.28990805017000E+01 4.36323820420000E+01 4.43782183487000E+01 4.51368036861000E+01 
4.59083559813000E+01 4.66930968861000E+01 4.74912518415000E+01 4.83030501419000E+01 
4.91287250014000E+01 4.99685136202000E+01 5.08226572534000E+01 5.16914012800000E+01 
5.25749952733000E+01 5.34736930728000E+01 5.43877528569000E+01 5.53174372174000E+01 
5.62630132345000E+01 5.72247525540000E+01 5.82029314649000E+01 5.91978309791000E+01 
6.02097369120000E+01 6.12389399647000E+01 6.22857358071000E+01 6.33504251636000E+01 
6.44333138987000E+01 6.55347131054000E+01 6.66549391945000E+01 6.77943139851000E+01 
6.89531647977000E+01 7.01318245476000E+01 7.13306318409000E+01 7.25499310719000E+01 
7.37900725215000E+01 7.50514124585000E+01 7.63343132414000E+01 7.76391434227000E+01 
7.89662778549000E+01 8.03160977981000E+01 8.16889910293000E+01 8.30853519544000E+01 
8.45055817206000E+01 8.59500883326000E+01 8.74192867692000E+01 8.89135991027000E+01 
9.04334546199000E+01 9.19792899462000E+01 9.35515491699000E+01 9.51506839708000E+01 
9.67771537493000E+01 9.84314257588000E+01 1.00113975240000E+02 1.01825285556000E+02 
1.03565848333000E+02 1.05336163602000E+02 1.07136739940000E+02 1.08968094617000E+02 
1.10830753747000E+02 1.12725252435000E+02 1.14652134934000E+02 1.16611954800000E+02 
1.18605275052000E+02 1.20632668332000E+02 1.22694717070000E+02 1.24792013653000E+02 
1.26925160595000E+02 1.29094770707000E+02 1.31301467275000E+02 1.33545884242000E+02 
1.35828666384000E+02 1.38150469501000E+02 1.40511960602000E+02 1.42913818098000E+02 
1.45356731996000E+02 1.47841404097000E+02 1.50368548200000E+02 1.52938890305000E+02 
1.55553168821000E+02 1.58212134779000E+02 1.60916552050000E+02 1.63667197560000E+02 
1.66464861515000E+02 1.69310347632000E+02 1.72204473363000E+02 1.75148070133000E+02 
1.78141983583000E+02 1.81187073805000E+02 1.84284215594000E+02 1.87434298699000E+02 
1.90638228079000E+02 1.93896924161000E+02 1.97211323104000E+02 2.00582377071000E+02 
2.04011054501000E+02 
</PP_R>
    <PP_RAB>
1.61587495219000E-06 1.64349607937000E-06 1.67158935116000E-06 1.70016283822000E-06 
1.72922474917000E-06 1.75878343293000E-06 1.78884738113000E-06 1.81942523057000E-06 
1.85052576568000E-06 1.88215792102000E-06 1.91433078392000E-06 1.94705359700000E-06 
1.98033576091000E-06 2.01418683696000E-06 2.04861654991000E-06 2.08363479075000E-06 
2.11925161955000E-06 2.15547726833000E-06 2.19232214402000E-06 2.22979683144000E-06 
2.26791209633000E-06 2.30667888849000E-06 2.34610834486000E-06 2.38621179275000E-06 
2.42700075312000E-06 2.46848694384000E-06 2.51068228309000E-06 2.55359889278000E-06 
2.59724910201000E-06 2.64164545066000E-06 2.68680069292000E-06 2.73272780103000E-06 
2.77943996896000E-06 2.82695061620000E-06 2.87527339165000E-06 2.92442217751000E-06 
2.97441109328000E-06 3.02525449979000E-06 3.07696700337000E-06 3.12956346004000E-06 
3.18305897973000E-06 3.23746893067000E-06 3.29280894378000E-06 3.34909491719000E-06 
3.40634302075000E-06 3.46456970075000E-06 3.52379168459000E-06 3.58402598558000E-06 
3.64528990789000E-06 3.70760105145000E-06 3.77097731705000E-06 3.83543691146000E-06 
3.90099835267000E-06 3.96768047522000E-06 4.03550243560000E-06 4.10448371773000E-06 
4.17464413861000E-06 4.24600385397000E-06 4.31858336408000E-06 4.39240351961000E-06 
4.46748552768000E-06 4.54385095789000E-06 4.62152174856000E-06 4.70052021299000E-06 
4.78086904592000E-06 4.86259133002000E-06 4.94571054251000E-06 5.03025056193000E-06 
5.11623567500000E-06 5.20369058358000E-06 5.29264041176000E-06 5.38311071312000E-06 
5.47512747802000E-06 5.56871714109000E-06 5.66390658884000E-06 5.76072316735000E-06 
5.85919469016000E-06 5.95934944621000E-06 6.06121620805000E-06 6.16482424001000E-06 
6.27020330668000E-06 6.37738368143000E-06 6.48639615510000E-06 6.59727204487000E-06 
6.71004320323000E-06 6.82474202716000E-06 6.94140146741000E-06 7.06005503799000E-06 
7.18073682575000E-06 7.30348150025000E-06 7.42832432366000E-06 7.55530116091000E-06 
7.68444848997000E-06 7.81580341239000E-06 7.94940366388000E-06 8.08528762522000E-06 
8.22349433323000E-06 8.36406349204000E-06 8.50703548444000E-06 8.65245138351000E-06 
8.80035296443000E-06 8.95078271647000E-06 9.10378385517000E-06 9.25940033481000E-06 
9.41767686099000E-06 9.57865890349000E-06 9.74239270934000E-06 9.90892531609000E-06 
1.00783045653000E-05 1.02505791165000E-05 1.04257984606000E-05 1.06040129349000E-05 
1.07852737369000E-05 1.09696329394000E-05 1.11571435051000E-05 1.13478593023000E-05 
1.15418351198000E-05 1.17391266833000E-05 1.19397906706000E-05 1.21438847288000E-05 
1.23514674901000E-05 1.25625985889000E-05 1.27773386793000E-05 1.29957494518000E-05 
1.32178936516000E-05 1.34438350965000E-05 1.36736386951000E-05 1.39073704655000E-05 
1.41450975543000E-05 1.43868882559000E-05 1.46328120321000E-05 1.48829395320000E-05 
1.51373426125000E-05 1.53960943585000E-05 1.56592691046000E-05 1.59269424557000E-05 
1.61991913091000E-05 1.64760938767000E-05 1.67577297073000E-05 1.70441797093000E-05 
1.73355261743000E-05 1.76318528006000E-05 1.79332447170000E-05 1.82397885075000E-05 
1.85515722364000E-05 1.88686854729000E-05 1.91912193177000E-05 1.95192664284000E-05 
1.98529210466000E-05 2.01922790249000E-05 2.05374378542000E-05 2.08884966920000E-05 
2.12455563907000E-05 2.16087195266000E-05 2.19780904295000E-05 2.23537752125000E-05 
2.27358818025000E-05 2.31245199714000E-05 2.35198013674000E-05 2.39218395472000E-05 
2.43307500087000E-05 2.47466502237000E-05 2.51696596725000E-05 2.55998998775000E-05 
2.60374944384000E-05 2.64825690675000E-05 2.69352516263000E-05 2.73956721616000E-05 
2.78639629435000E-05 2.83402585027000E-05 2.88246956697000E-05 2.93174136141000E-05 
2.98185538840000E-05 3.03282604475000E-05 3.08466797333000E-05 3.13739606733000E-05 
3.19102547451000E-05 3.24557160156000E-05 3.30105011852000E-05 3.35747696331000E-05 
3.41486834625000E-05 3.47324075480000E-05 3.53261095820000E-05 3.59299601237000E-05 
3.65441326477000E-05 3.71688035938000E-05 3.78041524179000E-05 3.84503616435000E-05 
3.91076169140000E-05 3.97761070460000E-05 4.04560240839000E-05 4.11475633546000E-05 
4.18509235241000E-05 4.25663066540000E-05 4.32939182601000E-05 4.40339673712000E-05 
4.47866665890000E-05 4.55522321495000E-05 4.63308839848000E-05 4.71228457865000E-05 
4.79283450699000E-05 4.87476132394000E-05 4.95808856549000E-05 5.04284016994000E-05 
5.12904048479000E-05 5.21671427372000E-05 5.30588672371000E-05 5.39658345229000E-05 
5.48883051486000E-05 5.58265441223000E-05 5.67808209817000E-05 5.77514098723000E-05 
5.87385896255000E-05 5.97426438387000E-05 6.07638609575000E-05 6.18025343577000E-05 
6.28589624301000E-05 6.39334486660000E-05 6.50263017446000E-05 6.61378356213000E-05 
6.72683696184000E-05 6.84182285164000E-05 6.95877426475000E-05 7.07772479904000E-05 
7.19870862671000E-05 7.32176050407000E-05 7.44691578154000E-05 7.57421041381000E-05 
7.70368097016000E-05 7.83536464499000E-05 7.96929926845000E-05 8.10552331738000E-05 
8.24407592631000E-05 8.38499689873000E-05 8.52832671850000E-05 8.67410656150000E-05 
8.82237830747000E-05 8.97318455201000E-05 9.12656861883000E-05 9.28257457220000E-05 
9.44124722963000E-05 9.60263217468000E-05 9.76677577015000E-05 9.93372517129000E-05 
1.01035283395000E-04 1.02762340558000E-04 1.04518919353000E-04 1.06305524412000E-04 
1.08122668990000E-04 1.09970875119000E-04 1.11850673752000E-04 1.13762604920000E-04 
1.15707217882000E-04 1.17685071289000E-04 1.19696733340000E-04 1.21742781946000E-04 
1.23823804898000E-04 1.25940400032000E-04 1.28093175407000E-04 1.30282749472000E-04 
1.32509751249000E-04 1.34774820515000E-04 1.37078607978000E-04 1.39421775472000E-04 
1.41804996145000E-04 1.44228954649000E-04 1.46694347341000E-04 1.49201882480000E-04 
1.51752280433000E-04 1.54346273880000E-04 1.56984608024000E-04 1.59668040808000E-04 
1.62397343131000E-04 1.65173299068000E-04 1.67996706097000E-04 1.70868375330000E-04 
1.73789131740000E-04 1.76759814404000E-04 1.79781276743000E-04 1.82854386764000E-04 
1.85980027311000E-04 1.89159096322000E-04 1.92392507081000E-04 1.95681188484000E-04 
1.99026085305000E-04 2.02428158470000E-04 2.05888385328000E-04 2.09407759934000E-04 
2.12987293338000E-04 2.16628013870000E-04 2.20330967438000E-04 2.24097217829000E-04 
2.27927847015000E-04 2.31823955461000E-04 2.35786662443000E-04 2.39817106370000E-04 
2.43916445111000E-04 2.48085856327000E-04 2.52326537809000E-04 2.56639707823000E-04 
2.61026605458000E-04 2.65488490986000E-04 2.70026646220000E-04 2.74642374885000E-04 
2.79337002989000E-04 2.84111879208000E-04 2.88968375273000E-04 2.93907886360000E-04 
2.98931831495000E-04 3.04041653962000E-04 3.09238821711000E-04 3.14524827791000E-04 
3.19901190767000E-04 3.25369455164000E-04 3.30931191910000E-04 3.36587998784000E-04 
3.42341500876000E-04 3.48193351057000E-04 3.54145230450000E-04 3.60198848915000E-04 
3.66355945539000E-04 3.72618289137000E-04 3.78987678758000E-04 3.85465944206000E-04 
3.92054946561000E-04 3.98756578715000E-04 4.05572765918000E-04 4.12505466329000E-04 
4.19556671577000E-04 4.26728407339000E-04 4.34022733915000E-04 4.41441746823000E-04 
4.48987577403000E-04 4.56662393425000E-04 4.64468399717000E-04 4.72407838791000E-04 
4.80482991497000E-04 4.88696177668000E-04 4.97049756794000E-04 5.05546128697000E-04 
5.14187734220000E-04 5.22977055929000E-04 5.31916618826000E-04 5.41008991075000E-04 
5.50256784738000E-04 5.59662656527000E-04 5.69229308568000E-04 5.78959489174000E-04 
5.88855993637000E-04 5.98921665033000E-04 6.09159395034000E-04 6.19572124741000E-04 
6.30162845530000E-04 6.40934599911000E-04 6.51890482399000E-04 6.63033640408000E-04 
6.74367275152000E-04 6.85894642565000E-04 6.97619054236000E-04 7.09543878361000E-04 
7.21672540713000E-04 7.34008525620000E-04 7.46555376974000E-04 7.59316699240000E-04 
7.72296158501000E-04 7.85497483504000E-04 7.98924466733000E-04 8.12580965502000E-04 
8.26470903058000E-04 8.40598269712000E-04 8.54967123983000E-04 8.69581593763000E-04 
8.84445877509000E-04 8.99564245440000E-04 9.14941040772000E-04 9.30580680960000E-04 
9.46487658970000E-04 9.62666544569000E-04 9.79121985638000E-04 9.95858709506000E-04 
1.01288152431000E-03 1.03019532038000E-03 1.04780507163000E-03 1.06571583699000E-03 
1.08393276190000E-03 1.10246107971000E-03 1.12130611326000E-03 1.14047327636000E-03 
1.15996807536000E-03 1.17979611074000E-03 1.19996307871000E-03 1.22047477286000E-03 
1.24133708579000E-03 1.26255601084000E-03 1.28413764381000E-03 1.30608818467000E-03 
1.32841393939000E-03 1.35112132173000E-03 1.37421685508000E-03 1.39770717435000E-03 
1.42159902783000E-03 1.44589927921000E-03 1.47061490947000E-03 1.49575301894000E-03 
1.52132082931000E-03 1.54732568571000E-03 1.57377505883000E-03 1.60067654708000E-03 
1.62803787873000E-03 1.65586691416000E-03 1.68417164810000E-03 1.71296021197000E-03 
1.74224087617000E-03 1.77202205245000E-03 1.80231229638000E-03 1.83312030975000E-03 
1.86445494312000E-03 1.89632519832000E-03 1.92874023104000E-03 1.96170935352000E-03 
1.99524203713000E-03 2.02934791517000E-03 2.06403678559000E-03 2.09931861384000E-03 
2.13520353571000E-03 2.17170186023000E-03 2.20882407268000E-03 2.24658083753000E-03 
2.28498300159000E-03 2.32404159705000E-03 2.36376784469000E-03 2.40417315709000E-03 
2.44526914191000E-03 2.48706760524000E-03 2.52958055497000E-03 2.57282020424000E-03 
2.61679897497000E-03 2.66152950140000E-03 2.70702463376000E-03 2.75329744192000E-03 
2.80036121915000E-03 2.84822948597000E-03 2.89691599400000E-03 2.94643472994000E-03 
2.99679991957000E-03 3.04802603182000E-03 3.10012778297000E-03 3.15312014084000E-03 
3.20701832911000E-03 3.26183783168000E-03 3.31759439715000E-03 3.37430404329000E-03 
3.43198306169000E-03 3.49064802240000E-03 3.55031577875000E-03 3.61100347212000E-03 
3.67272853691000E-03 3.73550870554000E-03 3.79936201353000E-03 3.86430680471000E-03 
3.93036173646000E-03 3.99754578508000E-03 4.06587825125000E-03 4.13537876556000E-03 
4.20606729416000E-03 4.27796414451000E-03 4.35108997118000E-03 4.42546578180000E-03 
4.50111294310000E-03 4.57805318704000E-03 4.65630861708000E-03 4.73590171448000E-03 
4.81685534480000E-03 4.89919276446000E-03 4.98293762738000E-03 5.06811399187000E-03 
5.15474632743000E-03 5.24285952186000E-03 5.33247888839000E-03 5.42363017290000E-03 
5.51633956142000E-03 5.61063368754000E-03 5.70653964015000E-03 5.80408497118000E-03 