<UPF version="2.0.1">
  <PP_INFO>
Generated using Vanderbilt code, version   7  3  6
Author: kfg        Generation date:    8    4   15
Automatically converted from original USPP format to UPF.v1.

Futher converted to UPF.v2 format.
Convert Q_IJ to Q_IJL use the same routine as 'upflib/upf_to_internal.f90' of QE.
The conversion is done by using PseudoPotentialIO.jl package.
Converted by: JYU on 2024-04-30

1        The Pseudo was generated with a Scalar-Relativistic Calculation
1.80000000000E+00    Local Potential cutoff radius
nl pn  l   occ               Rcut            Rcut US             E pseu
3P  3  1  6.00      0.00000000000      1.40000000000     -7.87496119600
3D  3  2 10.00      0.00000000000      1.80000000000     -2.01554040200
4S  4  0  2.00      0.00000000000      1.80000000000     -1.20037202700
4P  4  1  0.00      0.00000000000      1.40000000000     -0.66648921500
</PP_INFO>
  <PP_HEADER element="Ga" pseudo_type="US" relativistic="scalar" is_ultrasoft="T" is_paw="F" is_coulomb="F" has_so="F" has_wfc="F" has_gipaw="F" core_correction="T" functional="PBE" z_valence="19.0" total_psenergy="-414.719995684" wfc_cutoff="0.0" rho_cutoff="0.0" l_max="2" mesh_size="871" number_of_wfc="4" number_of_proj="6"/>
  <PP_MESH>
    <PP_R>
0.00000000000000E+00 1.36680029290000E-06 2.75696412929000E-06 4.17089087632000E-06 
5.60898672780000E-06 7.07166482084000E-06 8.55934535454000E-06 1.00724557107000E-05 
1.16114305768000E-05 1.31767120703000E-05 1.47687498664000E-05 1.63880013268000E-05 
1.80349316311000E-05 1.97100139105000E-05 2.14137293836000E-05 2.31465674950000E-05 
2.49090260556000E-05 2.67016113855000E-05 2.85248384599000E-05 3.03792310567000E-05 
3.22653219068000E-05 3.41836528478000E-05 3.61347749790000E-05 3.81192488199000E-05 
4.01376444717000E-05 4.21905417802000E-05 4.42785305031000E-05 4.64022104793000E-05 
4.85621918007000E-05 5.07590949884000E-05 5.29935511701000E-05 5.52662022617000E-05 
5.75777011520000E-05 5.99287118899000E-05 6.23199098752000E-05 6.47519820529000E-05 
6.72256271103000E-05 6.97415556776000E-05 7.23004905326000E-05 7.49031668076000E-05 
7.75503322012000E-05 8.02427471928000E-05 8.29811852611000E-05 8.57664331064000E-05 
8.85992908764000E-05 9.14805723965000E-05 9.44111054030000E-05 9.73917317813000E-05 
1.00423307808000E-04 1.03506704396000E-04 1.06642807345000E-04 1.09832517597000E-04 
1.13076751495000E-04 1.16376441043000E-04 1.19732534179000E-04 1.23145995043000E-04 
1.26617804257000E-04 1.30148959204000E-04 1.33740474317000E-04 1.37393381368000E-04 
1.41108729768000E-04 1.44887586863000E-04 1.48731038246000E-04 1.52640188067000E-04 
1.56616159348000E-04 1.60660094309000E-04 1.64773154695000E-04 1.68956522108000E-04 
1.73211398348000E-04 1.77539005759000E-04 1.81940587580000E-04 1.86417408299000E-04 
1.90970754020000E-04 1.95601932831000E-04 2.00312275181000E-04 2.05103134260000E-04 
2.09975886388000E-04 2.14931931414000E-04 2.19972693112000E-04 2.25099619597000E-04 
2.30314183735000E-04 2.35617883569000E-04 2.41012242750000E-04 2.46498810973000E-04 
2.52079164422000E-04 2.57754906226000E-04 2.63527666914000E-04 2.69399104890000E-04 
2.75370906904000E-04 2.81444788539000E-04 2.87622494704000E-04 2.93905800134000E-04 
3.00296509902000E-04 3.06796459933000E-04 3.13407517540000E-04 3.20131581949000E-04 
3.26970584855000E-04 3.33926490972000E-04 3.41001298595000E-04 3.48197040182000E-04 
3.55515782928000E-04 3.62959629368000E-04 3.70530717973000E-04 3.78231223772000E-04 
3.86063358971000E-04 3.94029373590000E-04 4.02131556112000E-04 4.10372234136000E-04 
4.18753775050000E-04 4.27278586709000E-04 4.35949118126000E-04 4.44767860177000E-04 
4.53737346316000E-04 4.62860153302000E-04 4.72138901941000E-04 4.81576257840000E-04 
4.91174932166000E-04 5.00937682434000E-04 5.10867313293000E-04 5.20966677333000E-04 
5.31238675907000E-04 5.41686259960000E-04 5.52312430882000E-04 5.63120241367000E-04 
5.74112796287000E-04 5.85293253593000E-04 5.96664825213000E-04 6.08230777979000E-04 
6.19994434567000E-04 6.31959174446000E-04 6.44128434855000E-04 6.56505711788000E-04 
6.69094560995000E-04 6.81898599011000E-04 6.94921504187000E-04 7.08167017752000E-04 
7.21638944886000E-04 7.35341155813000E-04 7.49277586912000E-04 7.63452241851000E-04 
7.77869192734000E-04 7.92532581272000E-04 8.07446619973000E-04 8.22615593351000E-04 
8.38043859158000E-04 8.53735849638000E-04 8.69696072795000E-04 8.85929113693000E-04 
9.02439635770000E-04 9.19232382179000E-04 9.36312177152000E-04 9.53683927384000E-04 
9.71352623441000E-04 9.89323341199000E-04 1.00760124330000E-03 1.02619158062000E-03 
1.04509969382000E-03 1.06433101482000E-03 1.08389106842000E-03 1.10378547383000E-03 
1.12401994634000E-03 1.14460029892000E-03 1.16553244390000E-03 1.18682239469000E-03 
1.20847626748000E-03 1.23050028300000E-03 1.25290076832000E-03 1.27568415869000E-03 
1.29885699931000E-03 1.32242594730000E-03 1.34639777357000E-03 1.37077936475000E-03 
1.39557772521000E-03 1.42079997902000E-03 1.44645337207000E-03 1.47254527407000E-03 
1.49908318072000E-03 1.52607471585000E-03 1.55352763359000E-03 1.58144982066000E-03 
1.60984929854000E-03 1.63873422587000E-03 1.66811290071000E-03 1.69799376300000E-03 
1.72838539693000E-03 1.75929653343000E-03 1.79073605266000E-03 1.82271298660000E-03 
1.85523652159000E-03 1.88831600103000E-03 1.92196092800000E-03 1.95618096804000E-03 
1.99098595191000E-03 2.02638587841000E-03 2.06239091724000E-03 2.09901141196000E-03 
2.13625788293000E-03 2.17414103034000E-03 2.21267173729000E-03 2.25186107290000E-03 
2.29172029550000E-03 2.33226085589000E-03 2.37349440058000E-03 2.41543277517000E-03 
2.45808802774000E-03 2.50147241233000E-03 2.54559839242000E-03 2.59047864456000E-03 
2.63612606198000E-03 2.68255375829000E-03 2.72977507127000E-03 2.77780356669000E-03 
2.82665304222000E-03 2.87633753135000E-03 2.92687130749000E-03 2.97826888800000E-03 
3.03054503842000E-03 3.08371477668000E-03 3.13779337740000E-03 3.19279637634000E-03 
3.24873957477000E-03 3.30563904411000E-03 3.36351113047000E-03 3.42237245938000E-03 
3.48223994055000E-03 3.54313077277000E-03 3.60506244878000E-03 3.66805276036000E-03 
3.73211980341000E-03 3.79728198314000E-03 3.86355801940000E-03 3.93096695200000E-03 
3.99952814623000E-03 4.06926129838000E-03 4.14018644146000E-03 4.21232395086000E-03 
4.28569455032000E-03 4.36031931778000E-03 4.43621969149000E-03 4.51341747616000E-03 
4.59193484922000E-03 4.67179436719000E-03 4.75301897217000E-03 4.83563199842000E-03 
4.91965717905000E-03 5.00511865288000E-03 5.09204097133000E-03 5.18044910551000E-03 
5.27036845335000E-03 5.36182484696000E-03 5.45484455998000E-03 5.54945431517000E-03 
5.64568129208000E-03 5.74355313487000E-03 5.84309796023000E-03 5.94434436544000E-03 
6.04732143666000E-03 6.15205875719000E-03 6.25858641604000E-03 6.36693501654000E-03 
6.47713568516000E-03 6.58922008041000E-03 6.70322040198000E-03 6.81916939994000E-03 
6.93710038420000E-03 7.05704723405000E-03 7.17904440789000E-03 7.30312695317000E-03 
7.42933051638000E-03 7.55769135338000E-03 7.68824633974000E-03 7.82103298139000E-03 
7.95608942536000E-03 8.09345447075000E-03 8.23316757989000E-03 8.37526888964000E-03 
8.51979922296000E-03 8.66680010062000E-03 8.81631375313000E-03 8.96838313287000E-03 
9.12305192642000E-03 9.28036456714000E-03 9.44036624791000E-03 9.60310293410000E-03 
9.76862137684000E-03 9.93696912635000E-03 1.01081945457000E-02 1.02823468246000E-02 
1.04594759937000E-02 1.06396329387000E-02 1.08228694153000E-02 1.10092380637000E-02 
1.11987924240000E-02 1.13915869516000E-02 1.15876770326000E-02 1.17871189998000E-02 
1.19899701492000E-02 1.21962887558000E-02 1.24061340911000E-02 1.26195664395000E-02 
1.28366471160000E-02 1.30574384837000E-02 1.32820039718000E-02 1.35104080934000E-02 
1.37427164648000E-02 1.39789958235000E-02 1.42193140481000E-02 1.44637401774000E-02 
1.47123444302000E-02 1.49651982258000E-02 1.52223742041000E-02 1.54839462469000E-02 
1.57499894987000E-02 1.60205803886000E-02 1.62957966521000E-02 1.65757173535000E-02 
1.68604229086000E-02 1.71499951079000E-02 1.74445171398000E-02 1.77440736148000E-02 
1.80487505897000E-02 1.83586355922000E-02 1.86738176464000E-02 1.89943872979000E-02 
1.93204366403000E-02 1.96520593410000E-02 1.99893506691000E-02 2.03324075217000E-02 
2.06813284524000E-02 2.10362136994000E-02 2.13971652145000E-02 2.17642866919000E-02 
2.21376835987000E-02 2.25174632044000E-02 2.29037346125000E-02 2.32966087913000E-02 
2.36961986058000E-02 2.41026188505000E-02 2.45159862821000E-02 2.49364196530000E-02 
2.53640397457000E-02 2.57989694071000E-02 2.62413335840000E-02 2.66912593591000E-02 
2.71488759875000E-02 2.76143149334000E-02 2.80877099086000E-02 2.85691969102000E-02 
2.90589142601000E-02 2.95570026447000E-02 3.00636051550000E-02 3.05788673282000E-02 
3.11029371892000E-02 3.16359652931000E-02 3.21781047685000E-02 3.27295113616000E-02 
3.32903434809000E-02 3.38607622425000E-02 3.44409315168000E-02 3.50310179752000E-02 
3.56311911380000E-02 3.62416234234000E-02 3.68624901968000E-02 3.74939698212000E-02 
3.81362437085000E-02 3.87894963715000E-02 3.94539154772000E-02 4.01296919001000E-02 
4.08170197779000E-02 4.15160965665000E-02 4.22271230972000E-02 4.29503036341000E-02 
4.36858459330000E-02 4.44339613009000E-02 4.51948646570000E-02 4.59687745941000E-02 
4.67559134414000E-02 4.75565073288000E-02 4.83707862513000E-02 4.91989841357000E-02 
5.00413389070000E-02 5.08980925575000E-02 5.17694912160000E-02 5.26557852185000E-02 
5.35572291799000E-02 5.44740820679000E-02 5.54066072763000E-02 5.63550727018000E-02 
5.73197508200000E-02 5.83009187644000E-02 5.92988584054000E-02 6.03138564318000E-02 
6.13462044330000E-02 6.23961989825000E-02 6.34641417234000E-02 6.45503394550000E-02 
6.56551042210000E-02 6.67787533988000E-02 6.79216097911000E-02 6.90840017184000E-02 
7.02662631135000E-02 7.14687336172000E-02 7.26917586759000E-02 7.39356896412000E-02 
7.52008838703000E-02 7.64877048289000E-02 7.77965221960000E-02 7.91277119694000E-02 
8.04816565741000E-02 8.18587449722000E-02 8.32593727746000E-02 8.46839423546000E-02 
8.61328629634000E-02 8.76065508478000E-02 8.91054293700000E-02 9.06299291286000E-02 
9.21804880830000E-02 9.37575516787000E-02 9.53615729756000E-02 9.69930127780000E-02 
9.86523397670000E-02 1.00340030635000E-01 1.02056570223000E-01 1.03802451660000E-01 
1.05578176503000E-01 1.07384254884000E-01 1.09221205655000E-01 1.11089556535000E-01 
1.12989844267000E-01 1.14922614765000E-01 1.16888423277000E-01 1.18887834542000E-01 
1.20921422952000E-01 1.22989772718000E-01 1.25093478037000E-01 1.27233143262000E-01 
1.29409383078000E-01 1.31622822677000E-01 1.33874097936000E-01 1.36163855604000E-01 
1.38492753484000E-01 1.40861460622000E-01 1.43270657504000E-01 1.45721036244000E-01 
1.48213300788000E-01 1.50748167117000E-01 1.53326363448000E-01 1.55948630447000E-01 
1.58615721441000E-01 1.61328402633000E-01 1.64087453324000E-01 1.66893666136000E-01 
1.69747847240000E-01 1.72650816587000E-01 1.75603408143000E-01 1.78606470131000E-01 
1.81660865272000E-01 1.84767471036000E-01 1.87927179890000E-01 1.91140899557000E-01 
1.94409553276000E-01 1.97734080069000E-01 2.01115435008000E-01 2.04554589490000E-01 
2.08052531518000E-01 2.11610265984000E-01 2.15228814955000E-01 2.18909217971000E-01 
2.22652532340000E-01 2.26459833443000E-01 2.30332215046000E-01 2.34270789608000E-01 
2.38276688605000E-01 2.42351062855000E-01 2.46495082846000E-01 2.50709939076000E-01 
2.54996842390000E-01 2.59357024334000E-01 2.63791737503000E-01 2.68302255905000E-01 
2.72889875324000E-01 2.77555913694000E-01 2.82301711478000E-01 2.87128632052000E-01 
2.92038062096000E-01 2.97031411996000E-01 3.02110116243000E-01 3.07275633852000E-01 
3.12529448775000E-01 3.17873070332000E-01 3.23308033641000E-01 3.28835900064000E-01 
3.34458257648000E-01 3.40176721588000E-01 3.45992934688000E-01 3.51908567835000E-01 
3.57925320474000E-01 3.64044921102000E-01 3.70269127763000E-01 3.76599728549000E-01 
3.83038542122000E-01 3.89587418226000E-01 3.96248238227000E-01 4.03022915650000E-01 
4.09913396730000E-01 4.16921660966000E-01 4.24049721699000E-01 4.31299626682000E-01 
4.38673458673000E-01 4.46173336031000E-01 4.53801413325000E-01 4.61559881955000E-01 
4.69450970778000E-01 4.77476946751000E-01 4.85640115583000E-01 4.93942822393000E-01 
5.02387452389000E-01 5.10976431549000E-01 5.19712227321000E-01 5.28597349330000E-01 
5.37634350100000E-01 5.46825825785000E-01 5.56174416920000E-01 5.65682809173000E-01 
5.75353734121000E-01 5.85189970035000E-01 5.95194342674000E-01 6.05369726101000E-01 
6.15719043507000E-01 6.26245268050000E-01 6.36951423711000E-01 6.47840586162000E-01 
6.58915883647000E-01 6.70180497887000E-01 6.81637664985000E-01 6.93290676366000E-01 
7.05142879713000E-01 7.17197679935000E-01 7.29458540143000E-01 7.41928982644000E-01 
7.54612589957000E-01 7.67513005835000E-01 7.80633936318000E-01 7.93979150797000E-01 
8.07552483092000E-01 8.21357832559000E-01 8.35399165209000E-01 8.49680514844000E-01 
8.64205984220000E-01 8.78979746223000E-01 8.94006045069000E-01 9.09289197523000E-01 
9.24833594138000E-01 9.40643700520000E-01 9.56724058606000E-01 9.73079287971000E-01 
9.89714087156000E-01 1.00663323502000E+00 1.02384159210000E+00 1.04134410203000E+00 
1.05914579294000E+00 1.07725177891000E+00 1.09566726145000E+00 1.11439753095000E+00 
1.13344796828000E+00 1.15282404624000E+00 1.17253133121000E+00 1.19257548472000E+00 
1.21296226506000E+00 1.23369752895000E+00 1.25478723324000E+00 1.27623743660000E+00 
1.29805430124000E+00 1.32024409474000E+00 1.34281319179000E+00 1.36576807606000E+00 
1.38911534203000E+00 1.41286169694000E+00 1.43701396264000E+00 1.46157907761000E+00 
1.48656409895000E+00 1.51197620435000E+00 1.53782269423000E+00 1.56411099378000E+00 
1.59084865512000E+00 1.61804335947000E+00 1.64570291934000E+00 1.67383528078000E+00 
1.70244852568000E+00 1.73155087407000E+00 1.76115068648000E+00 1.79125646638000E+00 
1.82187686257000E+00 1.85302067170000E+00 1.88469684079000E+00 1.91691446977000E+00 
1.94968281416000E+00 1.98301128767000E+00 2.01690946491000E+00 2.05138708419000E+00 
2.08645405025000E+00 2.12212043715000E+00 2.15839649117000E+00 2.19529263370000E+00 
2.23281946429000E+00 2.27098776368000E+00 2.30980849688000E+00 2.34929281633000E+00 
2.38945206512000E+00 2.43029778022000E+00 2.47184169582000E+00 2.51409574668000E+00 
2.55707207156000E+00 2.60078301674000E+00 2.64524113952000E+00 2.69045921187000E+00 
2.73645022405000E+00 2.78322738841000E+00 2.83080414310000E+00 2.87919415602000E+00 
2.92841132868000E+00 2.97846980021000E+00 3.02938395145000E+00 3.08116840905000E+00 
3.13383804968000E+00 3.18740800432000E+00 3.24189366256000E+00 3.29731067709000E+00 
3.35367496815000E+00 3.41100272809000E+00 3.46931042609000E+00 3.52861481281000E+00 
3.58893292525000E+00 3.65028209164000E+00 3.71267993642000E+00 3.77614438526000E+00 
3.84069367029000E+00 3.90634633526000E+00 3.97312124091000E+00 4.04103757038000E+00 
4.11011483472000E+00 4.18037287849000E+00 4.25183188546000E+00 4.32451238443000E+00 
4.39843525510000E+00 4.47362173407000E+00 4.55009342096000E+00 4.62787228462000E+00 
4.70698066941000E+00 4.78744130163000E+00 4.86927729606000E+00 4.95251216261000E+00 
5.03716981303000E+00 5.12327456784000E+00 5.21085116327000E+00 5.29992475837000E+00 
5.39052094227000E+00 5.48266574149000E+00 5.57638562746000E+00 5.67170752409000E+00 
5.76865881550000E+00 5.86726735393000E+00 5.96756146771000E+00 6.06956996939000E+00 
6.17332216404000E+00 6.27884785767000E+00 6.38617736575000E+00 6.49534152198000E+00 
6.60637168711000E+00 6.71929975796000E+00 6.83415817658000E+00 6.95097993956000E+00 
7.06979860755000E+00 7.19064831484000E+00 7.31356377921000E+00 7.43858031191000E+00 
7.56573382776000E+00 7.69506085550000E+00 7.82659854830000E+00 7.96038469437000E+00 
8.09645772790000E+00 8.23485674004000E+00 8.37562149013000E+00 8.51879241717000E+00 
8.66441065140000E+00 8.81251802612000E+00 8.96315708971000E+00 9.11637111785000E+00 
9.27220412598000E+00 9.43070088190000E+00 9.59190691866000E+00 9.75586854764000E+00 
9.92263287184000E+00 1.00922477994000E+01 1.02647620575000E+01 1.04402252060000E+01 
1.06186876522000E+01 1.08002006648000E+01 1.09848163891000E+01 1.11725878615000E+01 
1.13635690252000E+01 1.15578147453000E+01 1.17553808249000E+01 1.19563240210000E+01 
1.21607020605000E+01 1.23685736574000E+01 1.25799985291000E+01 1.27950374139000E+01 
1.30137520884000E+01 1.32362053850000E+01 1.34624612102000E+01 1.36925845630000E+01 
1.39266415534000E+01 1.41646994213000E+01 1.44068265563000E+01 1.46530925167000E+01 
1.49035680500000E+01 1.51583251130000E+01 1.54174368924000E+01 1.56809778261000E+01 
1.59490236243000E+01 1.62216512913000E+01 1.64989391477000E+01 1.67809668531000E+01 
1.70678154285000E+01 1.73595672800000E+01 1.76563062222000E+01 1.79581175025000E+01 
1.82650878254000E+01 1.85773053776000E+01 1.88948598531000E+01 1.92178424791000E+01 
1.95463460424000E+01 1.98804649157000E+01 2.02202950848000E+01 2.05659341763000E+01 
2.09174814858000E+01 2.12750380059000E+01 2.16387064556000E+01 2.20085913100000E+01 
2.23847988298000E+01 2.27674370921000E+01 2.31566160214000E+01 2.35524474214000E+01 
2.39550450068000E+01 2.43645244360000E+01 2.47810033445000E+01 2.52046013788000E+01 
2.56354402303000E+01 2.60736436707000E+01 2.65193375873000E+01 2.69726500194000E+01 
2.74337111949000E+01 2.79026535677000E+01 2.83796118559000E+01 2.88647230804000E+01 
2.93581266043000E+01 2.98599641728000E+01 3.03703799541000E+01 3.08895205809000E+01 
3.14175351922000E+01 3.19545754764000E+01 3.25007957147000E+01 3.30563528257000E+01 
3.36214064102000E+01 3.41961187971000E+01 3.47806550902000E+01 3.53751832154000E+01 
3.59798739691000E+01 3.65949010674000E+01 3.72204411957000E+01 3.78566740593000E+01 
3.85037824359000E+01 3.91619522270000E+01 3.98313725122000E+01 4.05122356029000E+01 
4.12047370979000E+01 4.19090759395000E+01 4.26254544706000E+01 4.33540784929000E+01 
4.40951573260000E+01 4.48489038675000E+01 4.56155346542000E+01 4.63952699243000E+01 
4.71883336805000E+01 4.79949537549000E+01 4.88153618738000E+01 4.96497937244000E+01 
5.04984890230000E+01 5.13616915833000E+01 5.22396493866000E+01 5.31326146533000E+01 
5.40408439150000E+01 5.49645980884000E+01 5.59041425502000E+01 5.68597472133000E+01 
5.78316866045000E+01 5.88202399431000E+01 5.98256912214000E+01 6.08483292861000E+01 
6.18884479213000E+01 6.29463459330000E+01 6.40223272347000E+01 6.51167009352000E+01 
6.62297814267000E+01 6.73618884758000E+01 6.85133473149000E+01 6.96844887359000E+01 
7.08756491850000E+01 7.20871708596000E+01 7.33194018065000E+01 7.45726960216000E+01 
7.58474135522000E+01 7.71439206000000E+01 7.84625896264000E+01 7.98037994594000E+01 
8.11679354027000E+01 8.25553893461000E+01 8.39665598783000E+01 8.54018524014000E+01 
8.68616792470000E+01 8.83464597952000E+01 8.98566205947000E+01 9.13925954854000E+01 
9.29548257233000E+01 9.45437601068000E+01 9.61598551061000E+01 9.78035749940000E+01 
9.94753919793000E+01 1.01175786343000E+02 1.02905246575000E+02 1.04664269516000E+02 
1.06453360499000E+02 1.08273033496000E+02 1.10123811263000E+02 1.12006225493000E+02 
1.13920816967000E+02 1.15868135711000E+02 1.17848741150000E+02 1.19863202276000E+02 
1.21912097803000E+02 1.23996016339000E+02 1.26115556555000E+02 1.28271327352000E+02 
1.30463948043000E+02 1.32694048524000E+02 1.34962269461000E+02 1.37269262469000E+02 
1.39615690303000E+02 1.42002227046000E+02 1.44429558304000E+02 1.46898381402000E+02 
1.49409405586000E+02 1.51963352223000E+02 1.54560955014000E+02 1.57202960200000E+02 
1.59890126776000E+02 1.62623226716000E+02 1.65403045184000E+02 1.68230380769000E+02 
1.71106045711000E+02 1.74030866131000E+02 1.77005682275000E+02 1.80031348748000E+02 
1.83108734768000E+02 1.86238724406000E+02 1.89422216850000E+02 1.92660126653000E+02 
1.95953384006000E+02 1.99302934997000E+02 2.02709741888000E+02 
</PP_R>
    <PP_RAB>
1.35524995991000E-06 1.37841606656000E-06 1.40197816549000E-06 1.42594302561000E-06 
1.45031753156000E-06 1.47510868568000E-06 1.50032360998000E-06 1.52596954822000E-06 
1.55205386799000E-06 1.57858406279000E-06 1.60556775425000E-06 1.63301269426000E-06 
1.66092676721000E-06 1.68931799229000E-06 1.71819452573000E-06 1.74756466321000E-06 
1.77743684220000E-06 1.80781964441000E-06 1.83872179821000E-06 1.87015218120000E-06 
1.90211982273000E-06 1.93463390648000E-06 1.96770377311000E-06 2.00133892295000E-06 
2.03554901875000E-06 2.07034388838000E-06 2.10573352775000E-06 2.14172810362000E-06 
2.17833795653000E-06 2.21557360378000E-06 2.25344574245000E-06 2.29196525248000E-06 
2.33114319977000E-06 2.37099083939000E-06 2.41151961881000E-06 2.45274118114000E-06 
2.49466736855000E-06 2.53731022563000E-06 2.58068200283000E-06 2.62479516003000E-06 
2.66966237009000E-06 2.71529652249000E-06 2.76171072704000E-06 2.80891831764000E-06 
2.85693285612000E-06 2.90576813612000E-06 2.95543818707000E-06 3.00595727823000E-06 
3.05733992275000E-06 3.10960088186000E-06 3.16275516914000E-06 3.21681805477000E-06 
3.27180506998000E-06 3.32773201148000E-06 3.38461494599000E-06 3.44247021487000E-06 
3.50131443884000E-06 3.56116452269000E-06 3.62203766019000E-06 3.68395133903000E-06 
3.74692334580000E-06 3.81097177114000E-06 3.87611501492000E-06 3.94237179154000E-06 
4.00976113529000E-06 4.07830240582000E-06 4.14801529372000E-06 4.21891982614000E-06 
4.29103637258000E-06 4.36438565074000E-06 4.43898873245000E-06 4.51486704971000E-06 
4.59204240092000E-06 4.67053695705000E-06 4.75037326806000E-06 4.83157426939000E-06 
4.91416328852000E-06 4.99816405166000E-06 5.08360069062000E-06 5.17049774969000E-06 
5.25888019270000E-06 5.34877341023000E-06 5.44020322686000E-06 5.53319590860000E-06 
5.62777817045000E-06 5.72397718407000E-06 5.82182058557000E-06 5.92133648347000E-06 
6.02255346676000E-06 6.12550061312000E-06 6.23020749727000E-06 6.33670419947000E-06 
6.44502131417000E-06 6.55518995878000E-06 6.66724178261000E-06 6.78120897599000E-06 
6.89712427949000E-06 7.01502099332000E-06 7.13493298695000E-06 7.25689470875000E-06 
7.38094119598000E-06 7.50710808478000E-06 7.63543162047000E-06 7.76594866791000E-06 
7.89869672212000E-06 8.03371391906000E-06 8.17103904654000E-06 8.31071155543000E-06 
8.45277157093000E-06 8.59725990413000E-06 8.74421806374000E-06 8.89368826799000E-06 
9.04571345678000E-06 9.20033730400000E-06 9.35760423010000E-06 9.51755941481000E-06 
9.68024881018000E-06 9.84571915370000E-06 1.00140179818000E-05 1.01851936435000E-05 
1.03592953143000E-05 1.05363730101000E-05 1.07164776020000E-05 1.08996608305000E-05 
1.10859753207000E-05 1.12754745971000E-05 1.14682130991000E-05 1.16642461968000E-05 
1.18636302068000E-05 1.20664224081000E-05 1.22726810591000E-05 1.24824654139000E-05 
1.26958357395000E-05 1.29128533330000E-05 1.31335805393000E-05 1.33580807693000E-05 
1.35864185173000E-05 1.38186593805000E-05 1.40548700771000E-05 1.42951184659000E-05 
1.45394735656000E-05 1.47880055747000E-05 1.50407858916000E-05 1.52978871353000E-05 
1.55593831660000E-05 1.58253491063000E-05 1.60958613632000E-05 1.63709976496000E-05 
1.66508370068000E-05 1.69354598273000E-05 1.72249478777000E-05 1.75193843223000E-05 
1.78188537470000E-05 1.81234421836000E-05 1.84332371344000E-05 1.87483275976000E-05 
1.90688040924000E-05 1.93947586857000E-05 1.97262850178000E-05 2.00634783299000E-05 
2.04064354911000E-05 2.07552550264000E-05 2.11100371447000E-05 2.14708837683000E-05 
2.18378985612000E-05 2.22111869598000E-05 2.25908562027000E-05 2.29770153614000E-05 
2.33697753719000E-05 2.37692490667000E-05 2.41755512069000E-05 2.45887985150000E-05 
2.50091097092000E-05 2.54366055366000E-05 2.58714088086000E-05 2.63136444357000E-05 
2.67634394636000E-05 2.72209231098000E-05 2.76862268005000E-05 2.81594842084000E-05 
2.86408312912000E-05 2.91304063305000E-05 2.96283499720000E-05 3.01348052650000E-05 
3.06499177045000E-05 3.11738352722000E-05 3.17067084796000E-05 3.22486904107000E-05 
3.27999367666000E-05 3.33606059095000E-05 3.39308589091000E-05 3.45108595877000E-05 
3.51007745686000E-05 3.57007733227000E-05 3.63110282182000E-05 3.69317145694000E-05 
3.75630106876000E-05 3.82050979318000E-05 3.88581607614000E-05 3.95223867886000E-05 
4.01979668328000E-05 4.08850949750000E-05 4.15839686138000E-05 4.22947885221000E-05 
4.30177589047000E-05 4.37530874570000E-05 4.45009854247000E-05 4.52616676644000E-05 
4.60353527053000E-05 4.68222628122000E-05 4.76226240492000E-05 4.84366663445000E-05 
4.92646235568000E-05 5.01067335422000E-05 5.09632382224000E-05 5.18343836549000E-05 
5.27204201027000E-05 5.36216021070000E-05 5.45381885600000E-05 5.54704427792000E-05 
5.64186325832000E-05 5.73830303686000E-05 5.83639131882000E-05 5.93615628307000E-05 
6.03762659015000E-05 6.14083139051000E-05 6.24580033290000E-05 6.35256357287000E-05 
6.46115178143000E-05 6.57159615386000E-05 6.68392841870000E-05 6.79818084684000E-05 
6.91438626078000E-05 7.03257804410000E-05 7.15279015100000E-05 7.27505711610000E-05 
7.39941406433000E-05 7.52589672104000E-05 7.65454142224000E-05 7.78538512507000E-05 
7.91846541840000E-05 8.05382053361000E-05 8.19148935561000E-05 8.33151143399000E-05 
8.47392699438000E-05 8.61877695002000E-05 8.76610291350000E-05 8.91594720872000E-05 
9.06835288303000E-05 9.22336371965000E-05 9.38102425019000E-05 9.54137976746000E-05 
9.70447633850000E-05 9.87036081781000E-05 1.00390808608000E-04 1.02106849374000E-04 
1.03852223463000E-04 1.05627432285000E-04 1.07432985825000E-04 1.09269402783000E-04 
1.11137210725000E-04 1.13036946238000E-04 1.14969155078000E-04 1.16934392332000E-04 
1.18933222573000E-04 1.20966220028000E-04 1.23033968738000E-04 1.25137062725000E-04 
1.27276106170000E-04 1.29451713576000E-04 1.31664509956000E-04 1.33915131000000E-04 
1.36204223271000E-04 1.38532444379000E-04 1.40900463178000E-04 1.43308959954000E-04 
1.45758626620000E-04 1.48250166920000E-04 1.50784296623000E-04 1.53361743737000E-04 
1.55983248713000E-04 1.58649564657000E-04 1.61361457552000E-04 1.64119706470000E-04 
1.66925103805000E-04 1.69778455491000E-04 1.72680581243000E-04 1.75632314784000E-04 
1.78634504090000E-04 1.81688011633000E-04 1.84793714625000E-04 1.87952505276000E-04 
1.91165291045000E-04 1.94432994902000E-04 1.97756555597000E-04 2.01136927923000E-04 
2.04575082997000E-04 2.08072008533000E-04 2.11628709130000E-04 2.15246206561000E-04 
2.18925540062000E-04 2.22667766634000E-04 2.26473961346000E-04 2.30345217645000E-04 
2.34282647668000E-04 2.38287382562000E-04 2.42360572810000E-04 2.46503388560000E-04 
2.50717019964000E-04 2.55002677516000E-04 2.59361592403000E-04 2.63795016857000E-04 
2.68304224514000E-04 2.72890510783000E-04 2.77555193215000E-04 2.82299611883000E-04 
2.87125129767000E-04 2.92033133145000E-04 2.97025031991000E-04 3.02102260380000E-04 
3.07266276904000E-04 3.12518565082000E-04 3.17860633797000E-04 3.23294017721000E-04 
3.28820277761000E-04 3.34441001503000E-04 3.40157803673000E-04 3.45972326598000E-04 
3.51886240678000E-04 3.57901244865000E-04 3.64019067154000E-04 3.70241465077000E-04 
3.76570226209000E-04 3.83007168679000E-04 3.89554141698000E-04 3.96213026083000E-04 
4.02985734804000E-04 4.09874213528000E-04 4.16880441182000E-04 4.24006430520000E-04 
4.31254228701000E-04 4.38625917876000E-04 4.46123615790000E-04 4.53749476386000E-04 
4.61505690426000E-04 4.69394486120000E-04 4.77418129767000E-04 4.85578926404000E-04 
4.93879220470000E-04 5.02321396480000E-04 5.10907879706000E-04 5.19641136879000E-04 
5.28523676896000E-04 5.37558051538000E-04 5.46746856206000E-04 5.56092730665000E-04 
5.65598359805000E-04 5.75266474409000E-04 5.85099851940000E-04 5.95101317335000E-04 
6.05273743824000E-04 6.15620053746000E-04 6.26143219397000E-04 6.36846263879000E-04 
6.47732261969000E-04 6.58804341003000E-04 6.70065681776000E-04 6.81519519453000E-04 
6.93169144501000E-04 7.05017903630000E-04 7.17069200760000E-04 7.29326497995000E-04 
7.41793316620000E-04 7.54473238111000E-04 7.67369905164000E-04 7.80487022740000E-04 
7.93828359136000E-04 8.07397747058000E-04 8.21199084728000E-04 8.35236337005000E-04 
8.49513536519000E-04 8.64034784833000E-04 8.78804253621000E-04 8.93826185866000E-04 
9.09104897077000E-04 9.24644776534000E-04 9.40450288542000E-04 9.56525973719000E-04 
9.72876450299000E-04 9.89506415458000E-04 1.00642064666000E-03 1.02362400304000E-03 
1.04112142679000E-03 1.05891794458000E-03 1.07701866900000E-03 1.09542880005000E-03 
1.11415362659000E-03 1.13319852791000E-03 1.15256897523000E-03 1.17227053332000E-03 
1.19230886205000E-03 1.21268971805000E-03 1.23341895633000E-03 1.25450253201000E-03 
1.27594650200000E-03 1.29775702672000E-03 1.31994037193000E-03 1.34250291046000E-03 
1.36545112410000E-03 1.38879160542000E-03 1.41253105970000E-03 1.43667630682000E-03 
1.46123428324000E-03 1.48621204399000E-03 1.51161676471000E-03 1.53745574366000E-03 
1.56373640391000E-03 1.59046629536000E-03 1.61765309700000E-03 1.64530461908000E-03 
1.67342880533000E-03 1.70203373530000E-03 1.73112762662000E-03 1.76071883742000E-03 
1.79081586866000E-03 1.82142736665000E-03 1.85256212547000E-03 1.88422908954000E-03 
1.91643735617000E-03 1.94919617817000E-03 1.98251496651000E-03 2.01640329304000E-03 
2.05087089322000E-03 2.08592766891000E-03 2.12158369126000E-03 2.15784920355000E-03 
2.19473462417000E-03 2.23225054956000E-03 2.27040775735000E-03 2.30921720935000E-03 
2.34869005477000E-03 2.38883763339000E-03 2.42967147884000E-03 2.47120332189000E-03 
2.51344509383000E-03 2.55640892991000E-03 2.60010717281000E-03 2.64455237618000E-03 
2.68975730828000E-03 2.73573495561000E-03 2.78249852664000E-03 2.83006145566000E-03 
2.87843740658000E-03 2.92764027685000E-03 2.97768420153000E-03 3.02858355726000E-03 
3.08035296644000E-03 3.13300730142000E-03 3.18656168877000E-03 3.24103151363000E-03 
3.29643242413000E-03 3.35278033587000E-03 3.41009143653000E-03 3.46838219047000E-03 
3.52766934349000E-03 3.58796992766000E-03 3.64930126615000E-03 3.71168097828000E-03 
3.77512698453000E-03 3.83965751171000E-03 3.90529109820000E-03 3.97204659924000E-03 
4.03994319242000E-03 4.10900038309000E-03 4.17923801006000E-03 4.25067625124000E-03 
4.32333562946000E-03 4.39723701834000E-03 4.47240164832000E-03 4.54885111276000E-03 