<UPF version="2.0.1">
  <PP_INFO>
Generated using Vanderbilt code, version   7  3  6
Author: kfg        Generation date:    2    4   15
Automatically converted from original USPP format to UPF.v1.

Futher converted to UPF.v2 format.
Convert Q_IJ to Q_IJL use the same routine as 'upflib/upf_to_internal.f90' of QE.
The conversion is done by using PseudoPotentialIO.jl package.
Converted by: JYU on 2024-04-30

0        The Pseudo was generated with a Non-Relativistic Calculation
1.00000000000E+00    Local Potential cutoff radius
nl pn  l   occ               Rcut            Rcut US             E pseu
1S  1  0  1.00      0.00000000000      1.20000000000     -0.47719071200
</PP_INFO>
  <PP_HEADER element="H" pseudo_type="US" relativistic="scalar" is_ultrasoft="T" is_paw="F" is_coulomb="F" has_so="F" has_wfc="F" has_gipaw="F" core_correction="F" functional="PBE" z_valence="1.0" total_psenergy="-0.91769791689" wfc_cutoff="0.0" rho_cutoff="0.0" l_max="0" mesh_size="615" number_of_wfc="1" number_of_proj="2"/>
  <PP_MESH>
    <PP_R>
0.00000000000000E+00 4.23708090800000E-05 8.54658880079000E-05 1.29297617166000E-04 
1.73878588562000E-04 2.19221609446000E-04 2.65339705991000E-04 3.12246127033000E-04 
3.59954347880000E-04 4.08478074179000E-04 4.57831245860000E-04 5.08028041132000E-04 
5.59082880565000E-04 6.11010431224000E-04 6.63825610891000E-04 7.17543592346000E-04 
7.72179807723000E-04 8.27749952951000E-04 8.84269992258000E-04 9.41756162756000E-04 
1.00022497911000E-03 1.05969323828000E-03 1.12017802435000E-03 1.18169671342000E-03 
1.24426697862000E-03 1.30790679519000E-03 1.37263444560000E-03 1.43846852486000E-03 
1.50542794582000E-03 1.57353194464000E-03 1.64280008627000E-03 1.71325227011000E-03 
1.78490873571000E-03 1.85779006859000E-03 1.93191720613000E-03 2.00731144364000E-03 
2.08399444042000E-03 2.16198822601000E-03 2.24131520651000E-03 2.32199817104000E-03 
2.40406029824000E-03 2.48752516298000E-03 2.57241674309000E-03 2.65875942630000E-03 
2.74657801717000E-03 2.83589774429000E-03 2.92674426749000E-03 3.01914368522000E-03 
3.11312254204000E-03 3.20870783626000E-03 3.30592702769000E-03 3.40480804551000E-03 
3.50537929633000E-03 3.60766967233000E-03 3.71170855954000E-03 3.81752584634000E-03 
3.92515193197000E-03 4.03461773533000E-03 4.14595470383000E-03 4.25919482242000E-03 
4.37437062280000E-03 4.49151519274000E-03 4.61066218562000E-03 4.73184583006000E-03 
4.85510093978000E-03 4.98046292358000E-03 5.10796779554000E-03 5.23765218533000E-03 
5.36955334878000E-03 5.50370917854000E-03 5.64015821498000E-03 5.77893965726000E-03 
5.92009337461000E-03 6.06365991777000E-03 6.20968053062000E-03 6.35819716206000E-03 
6.50925247803000E-03 6.66288987383000E-03 6.81915348648000E-03 6.97808820751000E-03 
7.13973969578000E-03 7.30415439064000E-03 7.47137952525000E-03 7.64146314016000E-03 
7.81445409709000E-03 7.99040209300000E-03 8.16935767435000E-03 8.35137225160000E-03 
8.53649811404000E-03 8.72478844472000E-03 8.91629733583000E-03 9.11107980416000E-03 
9.30919180695000E-03 9.51069025794000E-03 9.71563304373000E-03 9.92407904042000E-03 
1.01360881305000E-02 1.03517212201000E-02 1.05710402565000E-02 1.07941082456000E-02 
1.10209892708000E-02 1.12517485104000E-02 1.14864522572000E-02 1.17251679369000E-02 
1.19679641281000E-02 1.22149105813000E-02 1.24660782395000E-02 1.27215392582000E-02 
1.29813670266000E-02 1.32456361880000E-02 1.35144226619000E-02 1.37878036655000E-02 
1.40658577358000E-02 1.43486647524000E-02 1.46363059602000E-02 1.49288639930000E-02 
1.52264228971000E-02 1.55290681554000E-02 1.58368867121000E-02 1.61499669973000E-02 
1.64683989531000E-02 1.67922740588000E-02 1.71216853574000E-02 1.74567274824000E-02 
1.77974966849000E-02 1.81440908614000E-02 1.84966095816000E-02 1.88551541174000E-02 
1.92198274716000E-02 1.95907344078000E-02 1.99679814805000E-02 2.03516770654000E-02 
2.07419313909000E-02 2.11388565693000E-02 2.15425666298000E-02 2.19531775503000E-02 
2.23708072915000E-02 2.27955758302000E-02 2.32276051943000E-02 2.36670194974000E-02 
2.41139449748000E-02 2.45685100194000E-02 2.50308452192000E-02 2.55010833939000E-02 
2.59793596339000E-02 2.64658113388000E-02 2.69605782567000E-02 2.74638025245000E-02 
2.79756287089000E-02 2.84962038476000E-02 2.90256774917000E-02 2.95642017489000E-02 
3.01119313267000E-02 3.06690235772000E-02 3.12356385422000E-02 3.18119389993000E-02 
3.23980905084000E-02 3.29942614595000E-02 3.36006231210000E-02 3.42173496888000E-02 
3.48446183366000E-02 3.54826092665000E-02 3.61315057610000E-02 3.67914942355000E-02 
3.74627642918000E-02 3.81455087729000E-02 3.88399238181000E-02 3.95462089193000E-02 
4.02645669786000E-02 4.09952043664000E-02 4.17383309807000E-02 4.24941603073000E-02 
4.32629094814000E-02 4.40447993498000E-02 4.48400545342000E-02 4.56489034962000E-02 
4.64715786023000E-02 4.73083161912000E-02 4.81593566414000E-02 4.90249444405000E-02 
4.99053282549000E-02 5.08007610019000E-02 5.17114999221000E-02 5.26378066531000E-02 
5.35799473048000E-02 5.45381925362000E-02 5.55128176324000E-02 5.65041025845000E-02 
5.75123321694000E-02 5.85377960319000E-02 5.95807887680000E-02 6.06416100093000E-02 
6.17205645093000E-02 6.28179622306000E-02 6.39341184344000E-02 6.50693537708000E-02 
6.62239943709000E-02 6.73983719406000E-02 6.85928238560000E-02 6.98076932598000E-02 
7.10433291606000E-02 7.23000865326000E-02 7.35783264180000E-02 7.48784160303000E-02 
7.62007288601000E-02 7.75456447822000E-02 7.89135501651000E-02 8.03048379814000E-02 
8.17199079213000E-02 8.31591665069000E-02 8.46230272093000E-02 8.61119105675000E-02 
8.76262443088000E-02 8.91664634719000E-02 9.07330105322000E-02 9.23263355281000E-02 
9.39468961911000E-02 9.55951580770000E-02 9.72715946995000E-02 9.89766876664000E-02 
1.00710926818000E-01 1.02474810367000E-01 1.04268845045000E-01 1.06093546241000E-01 
1.07949438157000E-01 1.09837053956000E-01 1.11756935912000E-01 1.13709635571000E-01 
1.15695713906000E-01 1.17715741477000E-01 1.19770298601000E-01 1.21859975512000E-01 
1.23985372533000E-01 1.26147100250000E-01 1.28345779685000E-01 1.30582042477000E-01 
1.32856531060000E-01 1.35169898851000E-01 1.37522810436000E-01 1.39915941761000E-01 
1.42349980326000E-01 1.44825625383000E-01 1.47343588137000E-01 1.49904591951000E-01 
1.52509372551000E-01 1.55158678239000E-01 1.57853270111000E-01 1.60593922271000E-01 
1.63381422054000E-01 1.66216570256000E-01 1.69100181359000E-01 1.72033083770000E-01 
1.75016120055000E-01 1.78050147181000E-01 1.81136036767000E-01 1.84274675329000E-01 
1.87466964536000E-01 1.90713821473000E-01 1.94016178897000E-01 1.97374985513000E-01 
2.00791206240000E-01 2.04265822493000E-01 2.07799832461000E-01 2.11394251398000E-01 
2.15050111910000E-01 2.18768464255000E-01 2.22550376645000E-01 2.26396935548000E-01 
2.30309246008000E-01 2.34288431955000E-01 2.38335636532000E-01 2.42452022423000E-01 
2.46638772186000E-01 2.50897088593000E-01 2.55228194977000E-01 2.59633335579000E-01 
2.64113775912000E-01 2.68670803119000E-01 2.73305726347000E-01 2.78019877119000E-01 
2.82814609719000E-01 2.87691301581000E-01 2.92651353685000E-01 2.97696190957000E-01 
3.02827262682000E-01 3.08046042917000E-01 3.13354030916000E-01 3.18752751563000E-01 
3.24243755804000E-01 3.29828621100000E-01 3.35508951873000E-01 3.41286379974000E-01 
3.47162565144000E-01 3.53139195500000E-01 3.59217988010000E-01 3.65400688995000E-01 
3.71689074624000E-01 3.78084951430000E-01 3.84590156823000E-01 3.91206559624000E-01 
3.97936060596000E-01 4.04780592996000E-01 4.11742123125000E-01 4.18822650896000E-01 
4.26024210408000E-01 4.33348870529000E-01 4.40798735492000E-01 4.48375945500000E-01 
4.56082677337000E-01 4.63921145000000E-01 4.71893600329000E-01 4.80002333654000E-01 
4.88249674459000E-01 4.96637992045000E-01 5.05169696214000E-01 5.13847237958000E-01 
5.22673110168000E-01 5.31649848345000E-01 5.40780031334000E-01 5.50066282059000E-01 
5.59511268280000E-01 5.69117703359000E-01 5.78888347038000E-01 5.88826006236000E-01 
5.98933535848000E-01 6.09213839572000E-01 6.19669870742000E-01 6.30304633172000E-01 
6.41121182023000E-01 6.52122624681000E-01 6.63312121648000E-01 6.74692887450000E-01 
6.86268191559000E-01 6.98041359338000E-01 7.10015772989000E-01 7.22194872529000E-01 
7.34582156779000E-01 7.47181184366000E-01 7.59995574745000E-01 7.73029009244000E-01 
7.86285232117000E-01 7.99768051619000E-01 8.13481341103000E-01 8.27429040133000E-01 
8.41615155612000E-01 8.56043762936000E-01 8.70719007167000E-01 8.85645104216000E-01 
9.00826342063000E-01 9.16267081984000E-01 9.31971759805000E-01 9.47944887176000E-01 
9.64191052866000E-01 9.80714924086000E-01 9.97521247823000E-01 1.01461485221000E+00 
1.03200064791000E+00 1.04968362952000E+00 1.06766887702000E+00 1.08596155723000E+00 
1.10456692528000E+00 1.12349032612000E+00 1.14273719610000E+00 1.16231306446000E+00 
1.18222355496000E+00 1.20247438752000E+00 1.22307137979000E+00 1.24402044890000E+00 
1.26532761311000E+00 1.28699899356000E+00 1.30904081601000E+00 1.33145941266000E+00 
1.35426122392000E+00 1.37745280033000E+00 1.40104080437000E+00 1.42503201242000E+00 
1.44943331668000E+00 1.47425172719000E+00 1.49949437379000E+00 1.52516850821000E+00 
1.55128150612000E+00 1.57784086928000E+00 1.60485422770000E+00 1.63232934177000E+00 
1.66027410458000E+00 1.68869654410000E+00 1.71760482557000E+00 1.74700725376000E+00 
1.77691227542000E+00 1.80732848170000E+00 1.83826461057000E+00 1.86972954939000E+00 
1.90173233742000E+00 1.93428216846000E+00 1.96738839342000E+00 2.00106052311000E+00 
2.03530823085000E+00 2.07014135536000E+00 2.10556990352000E+00 2.14160405327000E+00 
2.17825415652000E+00 2.21553074213000E+00 2.25344451895000E+00 2.29200637888000E+00 
2.33122739998000E+00 2.37111884970000E+00 2.41169218808000E+00 2.45295907105000E+00 
2.49493135380000E+00 2.53762109414000E+00 2.58104055601000E+00 2.62520221299000E+00 
2.67011875186000E+00 2.71580307628000E+00 2.76226831047000E+00 2.80952780299000E+00 
2.85759513057000E+00 2.90648410204000E+00 2.95620876224000E+00 3.00678339612000E+00 
3.05822253278000E+00 3.11054094969000E+00 3.16375367692000E+00 3.21787600146000E+00 
3.27292347160000E+00 3.32891190142000E+00 3.38585737531000E+00 3.44377625260000E+00 
3.50268517227000E+00 3.56260105770000E+00 3.62354112158000E+00 3.68552287080000E+00 
3.74856411152000E+00 3.81268295426000E+00 3.87789781914000E+00 3.94422744112000E+00 
4.01169087542000E+00 4.08030750298000E+00 4.15009703602000E+00 4.22107952372000E+00 
4.29327535800000E+00 4.36670527930000E+00 4.44139038262000E+00 4.51735212356000E+00 
4.59461232444000E+00 4.67319318063000E+00 4.75311726689000E+00 4.83440754387000E+00 
4.91708736467000E+00 5.00118048163000E+00 5.08671105305000E+00 5.17370365023000E+00 
5.26218326445000E+00 5.35217531419000E+00 5.44370565243000E+00 5.53680057406000E+00 
5.63148682344000E+00 5.72779160212000E+00 5.82574257658000E+00 5.92536788625000E+00 
6.02669615156000E+00 6.12975648214000E+00 6.23457848524000E+00 6.34119227419000E+00 
6.44962847707000E+00 6.55991824551000E+00 6.67209326361000E+00 6.78618575710000E+00 
6.90222850253000E+00 7.02025483675000E+00 7.14029866643000E+00 7.26239447784000E+00 
7.38657734675000E+00 7.51288294850000E+00 7.64134756823000E+00 7.77200811135000E+00 
7.90490211410000E+00 8.04006775436000E+00 8.17754386261000E+00 8.31736993306000E+00 
8.45958613504000E+00 8.60423332451000E+00 8.75135305582000E+00 8.90098759361000E+00 
9.05317992499000E+00 9.20797377188000E+00 9.36541360354000E+00 9.52554464941000E+00 
9.68841291202000E+00 9.85406518028000E+00 1.00225490429000E+01 1.01939129020000E+01 
1.03682059871000E+01 1.05454783692000E+01 1.07257809753000E+01 1.09091656029000E+01 
1.10956849347000E+01 1.12853925542000E+01 1.14783429606000E+01 1.16745915850000E+01 
1.18741948058000E+01 1.20772099650000E+01 1.22836953850000E+01 1.24937103852000E+01 
1.27073152986000E+01 1.29245714900000E+01 1.31455413727000E+01 1.33702884272000E+01 
1.35988772189000E+01 1.38313734170000E+01 1.40678438131000E+01 1.43083563406000E+01 
1.45529800941000E+01 1.48017853493000E+01 1.50548435831000E+01 1.53122274942000E+01 
1.55740110241000E+01 1.58402693780000E+01 1.61110790470000E+01 1.63865178292000E+01 
1.66666648531000E+01 1.69516005993000E+01 1.72414069245000E+01 1.75361670844000E+01 
1.78359657578000E+01 1.81408890711000E+01 1.84510246229000E+01 1.87664615091000E+01 
1.90872903487000E+01 1.94136033095000E+01 1.97454941350000E+01 2.00830581710000E+01 
2.04263923931000E+01 2.07755954345000E+01 2.11307676145000E+01 2.14920109673000E+01 
2.18594292711000E+01 2.22331280780000E+01 2.26132147444000E+01 2.29997984620000E+01 
2.33929902887000E+01 2.37929031809000E+01 2.41996520259000E+01 2.46133536747000E+01 
2.50341269758000E+01 2.54620928093000E+01 2.58973741215000E+01 2.63400959602000E+01 
2.67903855108000E+01 2.72483721329000E+01 2.77141873971000E+01 2.81879651232000E+01 
2.86698414183000E+01 2.91599547161000E+01 2.96584458168000E+01 3.01654579271000E+01 
3.06811367018000E+01 3.12056302856000E+01 3.17390893551000E+01 3.22816671629000E+01 
3.28335195812000E+01 3.33948051463000E+01 3.39656851048000E+01 3.45463234596000E+01 
3.51368870166000E+01 3.57375454334000E+01 3.63484712676000E+01 3.69698400263000E+01 
3.76018302168000E+01 3.82446233975000E+01 3.88984042306000E+01 3.95633605346000E+01 
4.02396833386000E+01 4.09275669370000E+01 4.16272089455000E+01 4.23388103578000E+01 
4.30625756030000E+01 4.37987126050000E+01 4.45474328418000E+01 4.53089514060000E+01 
4.60834870673000E+01 4.68712623348000E+01 4.76725035210000E+01 4.84874408072000E+01 
4.93163083088000E+01 5.01593441437000E+01 5.10167904996000E+01 5.18888937042000E+01 
5.27759042961000E+01 5.36780770961000E+01 5.45956712810000E+01 5.55289504579000E+01 
5.64781827398000E+01 5.74436408228000E+01 5.84256020644000E+01 5.94243485629000E+01 
6.04401672390000E+01 6.14733499176000E+01 6.25241934122000E+01 6.35929996098000E+01 
6.46800755577000E+01 6.57857335518000E+01 6.69102912262000E+01 6.80540716446000E+01 
6.92174033930000E+01 7.04006206740000E+01 7.16040634032000E+01 7.28280773063000E+01 
7.40730140188000E+01 7.53392311870000E+01 7.66270925705000E+01 7.79369681470000E+01 
7.92692342184000E+01 8.06242735189000E+01 8.20024753252000E+01 
</PP_R>
    <PP_RAB>
4.20127487571000E-05 4.27308980635000E-05 4.34613231301000E-05 4.42042337938000E-05 
4.49598434784000E-05 4.57283692561000E-05 4.65100319094000E-05 4.73050559949000E-05 
4.81136699076000E-05 4.89361059465000E-05 4.97726003818000E-05 5.06233935220000E-05 
5.14887297836000E-05 5.23688577609000E-05 5.32640302976000E-05 5.41745045595000E-05 
5.51005421083000E-05 5.60424089766000E-05 5.70003757445000E-05 5.79747176173000E-05 
5.89657145047000E-05 5.99736511008000E-05 6.09988169663000E-05 6.20415066116000E-05 
6.31020195812000E-05 6.41806605399000E-05 6.52777393604000E-05 6.63935712123000E-05 
6.75284766524000E-05 6.86827817171000E-05 6.98568180159000E-05 7.10509228268000E-05 
7.22654391929000E-05 7.35007160212000E-05 7.47571081830000E-05 7.60349766154000E-05 
7.73346884252000E-05 7.86566169945000E-05 8.00011420877000E-05 8.13686499611000E-05 
8.27595334729000E-05 8.41741921973000E-05 8.56130325383000E-05 8.70764678468000E-05 
8.85649185396000E-05 9.00788122196000E-05 9.16185837993000E-05 9.31846756252000E-05 
9.47775376052000E-05 9.63976273378000E-05 9.80454102433000E-05 9.97213596979000E-05 
1.01425957169000E-04 1.03159692356000E-04 1.04923063326000E-04 1.06716576661000E-04 
1.08540747604000E-04 1.10396100203000E-04 1.12283167466000E-04 1.14202491510000E-04 
1.16154623720000E-04 1.18140124905000E-04 1.20159565463000E-04 1.22213525538000E-04 
1.24302595194000E-04 1.26427374580000E-04 1.28588474105000E-04 1.30786514610000E-04 
1.33022127550000E-04 1.35295955173000E-04 1.37608650706000E-04 1.39960878541000E-04 
1.42353314428000E-04 1.44786645668000E-04 1.47261571310000E-04 1.49778802351000E-04 
1.52339061944000E-04 1.54943085602000E-04 1.57591621409000E-04 1.60285430240000E-04 
1.63025285974000E-04 1.65811975717000E-04 1.68646300033000E-04 1.71529073167000E-04 
1.74461123284000E-04 1.77443292706000E-04 1.80476438153000E-04 1.83561430988000E-04 
1.86699157470000E-04 1.89890519007000E-04 1.93136432415000E-04 1.96437830184000E-04 
1.99795660739000E-04 2.03210888722000E-04 2.06684495261000E-04 2.10217478256000E-04 
2.13810852664000E-04 2.17465650793000E-04 2.21182922595000E-04 2.24963735971000E-04 
2.28809177075000E-04 2.32720350628000E-04 2.36698380234000E-04 2.40744408705000E-04 
2.44859598386000E-04 2.49045131491000E-04 2.53302210443000E-04 2.57632058218000E-04 
2.62035918699000E-04 2.66515057028000E-04 2.71070759976000E-04 2.75704336308000E-04 
2.80417117160000E-04 2.85210456424000E-04 2.90085731133000E-04 2.95044341859000E-04 
3.00087713115000E-04 3.05217293765000E-04 3.10434557436000E-04 3.15741002949000E-04 
3.21138154742000E-04 3.26627563312000E-04 3.32210805661000E-04 3.37889485746000E-04 
3.43665234942000E-04 3.49539712509000E-04 3.55514606072000E-04 3.61591632102000E-04 
3.67772536411000E-04 3.74059094652000E-04 3.80453112834000E-04 3.86956427832000E-04 
3.93570907924000E-04 4.00298453322000E-04 4.07140996720000E-04 4.14100503847000E-04 
4.21178974036000E-04 4.28378440794000E-04 4.35700972389000E-04 4.43148672442000E-04 
4.50723680533000E-04 4.58428172815000E-04 4.66264362641000E-04 4.74234501195000E-04 
4.82340878145000E-04 4.90585822296000E-04 4.98971702260000E-04 5.07500927138000E-04 
5.16175947212000E-04 5.24999254648000E-04 5.33973384210000E-04 5.43100913992000E-04 
5.52384466158000E-04 5.61826707692000E-04 5.71430351167000E-04 5.81198155524000E-04 
5.91132926865000E-04 6.01237519256000E-04 6.11514835553000E-04 6.21967828228000E-04 
6.32599500225000E-04 6.43412905817000E-04 6.54411151486000E-04 6.65597396816000E-04 
6.76974855398000E-04 6.88546795755000E-04 7.00316542283000E-04 7.12287476203000E-04 
7.24463036530000E-04 7.36846721069000E-04 7.49442087413000E-04 7.62252753965000E-04 
7.75282400984000E-04 7.88534771634000E-04 8.02013673066000E-04 8.15722977506000E-04 
8.29666623372000E-04 8.43848616404000E-04 8.58273030815000E-04 8.72944010460000E-04 
8.87865770026000E-04 9.03042596247000E-04 9.18478849131000E-04 9.34178963216000E-04 
9.50147448839000E-04 9.66388893438000E-04 9.82907962866000E-04 9.99709402732000E-04 
1.01679803976000E-03 1.03417878320000E-03 1.05185662618000E-03 1.06983664722000E-03 
1.08812401163000E-03 1.10672397300000E-03 1.12564187476000E-03 1.14488315165000E-03 
1.16445333131000E-03 1.18435803589000E-03 1.20460298360000E-03 1.22519399045000E-03 
1.24613697182000E-03 1.26743794423000E-03 1.28910302703000E-03 1.31113844419000E-03 
1.33355052605000E-03 1.35634571117000E-03 1.37953054817000E-03 1.40311169759000E-03 
1.42709593386000E-03 1.45149014718000E-03 1.47630134553000E-03 1.50153665668000E-03 
1.52720333026000E-03 1.55330873981000E-03 1.57986038490000E-03 1.60686589330000E-03 
1.63433302318000E-03 1.66226966532000E-03 1.69068384536000E-03 1.71958372615000E-03 
1.74897761008000E-03 1.77887394143000E-03 1.80928130883000E-03 1.84020844775000E-03 
1.87166424295000E-03 1.90365773106000E-03 1.93619810320000E-03 1.96929470759000E-03 
2.00295705224000E-03 2.03719480770000E-03 2.07201780980000E-03 2.10743606252000E-03 
2.14345974084000E-03 2.18009919367000E-03 2.21736494681000E-03 2.25526770599000E-03 
2.29381835994000E-03 2.33302798352000E-03 2.37290784089000E-03 2.41346938877000E-03 
2.45472427970000E-03 2.49668436542000E-03 2.53936170024000E-03 2.58276854454000E-03 
2.62691736826000E-03 2.67182085451000E-03 2.71749190319000E-03 2.76394363470000E-03 
2.81118939374000E-03 2.85924275309000E-03 2.90811751756000E-03 2.95782772791000E-03 
3.00838766494000E-03 3.05981185352000E-03 3.11211506684000E-03 3.16531233060000E-03 
3.21941892734000E-03 3.27445040084000E-03 3.33042256057000E-03 3.38735148626000E-03 
3.44525353249000E-03 3.50414533338000E-03 3.56404380742000E-03 3.62496616228000E-03 
3.68692989978000E-03 3.74995282088000E-03 3.81405303087000E-03 3.87924894449000E-03 
3.94555929126000E-03 4.01300312087000E-03 4.08159980862000E-03 4.15136906101000E-03 
4.22233092140000E-03 4.29450577576000E-03 4.36791435853000E-03 4.44257775857000E-03 
4.51851742523000E-03 4.59575517451000E-03 4.67431319532000E-03 4.75421405586000E-03 
4.83548071010000E-03 4.91813650437000E-03 5.00220518410000E-03 5.08771090057000E-03 
5.17467821794000E-03 5.26313212023000E-03 5.35309801852000E-03 5.44460175829000E-03 
5.53766962679000E-03 5.63232836061000E-03 5.72860515339000E-03 5.82652766356000E-03 
5.92612402239000E-03 6.02742284198000E-03 6.13045322351000E-03 6.23524476562000E-03 
6.34182757289000E-03 6.45023226451000E-03 6.56048998304000E-03 6.67263240339000E-03 
6.78669174191000E-03 6.90270076564000E-03 7.02069280173000E-03 7.14070174700000E-03 
7.26276207770000E-03 7.38690885941000E-03 7.51317775709000E-03 7.64160504536000E-03 
7.77222761888000E-03 7.90508300300000E-03 8.04020936450000E-03 8.17764552256000E-03 
8.31743095993000E-03 8.45960583427000E-03 8.60421098967000E-03 8.75128796838000E-03 
8.90087902279000E-03 9.05302712749000E-03 9.20777599171000E-03 9.36517007179000E-03 
9.52525458401000E-03 9.68807551755000E-03 9.85367964771000E-03 1.00221145494000E-02 
1.01934286106000E-02 1.03676710466000E-02 1.05448919139000E-02 1.07251421245000E-02 
1.09084734610000E-02 1.10949385908000E-02 1.12845910818000E-02 1.14774854174000E-02 
1.16736770125000E-02 1.18732222291000E-02 1.20761783926000E-02 1.22826038086000E-02 
1.24925577789000E-02 1.27061006194000E-02 1.29232936766000E-02 1.31441993461000E-02 
1.33688810897000E-02 1.35974034542000E-02 1.38298320895000E-02 1.40662337680000E-02 
1.43066764032000E-02 1.45512290697000E-02 1.47999620228000E-02 1.50529467185000E-02 
1.53102558346000E-02 1.55719632909000E-02 1.58381442709000E-02 1.61088752433000E-02 
1.63842339838000E-02 1.66642995977000E-02 1.69491525424000E-02 1.72388746506000E-02 
1.75335491540000E-02 1.78332607067000E-02 1.81380954101000E-02 1.84481408374000E-02 
1.87634860585000E-02 1.90842216661000E-02 1.94104398013000E-02 1.97422341802000E-02 
2.00797001210000E-02 2.04229345711000E-02 2.07720361351000E-02 2.11271051031000E-02 
2.14882434795000E-02 2.18555550125000E-02 2.22291452235000E-02 2.26091214378000E-02 
2.29955928152000E-02 2.33886703814000E-02 2.37884670601000E-02 2.41950977050000E-02 
2.46086791332000E-02 2.50293301588000E-02 2.54571716266000E-02 2.58923264472000E-02 
2.63349196321000E-02 2.67850783298000E-02 2.72429318623000E-02 2.77086117618000E-02 
2.81822518094000E-02 2.86639880725000E-02 2.91539589448000E-02 2.96523051853000E-02 
3.01591699593000E-02 3.06746988792000E-02 3.11990400465000E-02 3.17323440943000E-02 
3.22747642305000E-02 3.28264562819000E-02 3.33875787390000E-02 3.39582928014000E-02 
3.45387624242000E-02 3.51291543651000E-02 3.57296382322000E-02 3.63403865330000E-02 
3.69615747237000E-02 3.75933812595000E-02 3.82359876463000E-02 3.88895784924000E-02 
3.95543415619000E-02 4.02304678284000E-02 4.09181515297000E-02 4.16175902242000E-02 
4.23289848470000E-02 4.30525397680000E-02 4.37884628507000E-02 4.45369655113000E-02 
4.52982627804000E-02 4.60725733637000E-02 4.68601197059000E-02 4.76611280536000E-02 
4.84758285212000E-02 4.93044551562000E-02 5.01472460071000E-02 5.10044431915000E-02 
5.18762929653000E-02 5.27630457943000E-02 5.36649564253000E-02 5.45822839599000E-02 
5.55152919284000E-02 5.64642483660000E-02 5.74294258896000E-02 5.84111017759000E-02 
5.94095580414000E-02 6.04250815233000E-02 6.14579639619000E-02 6.25085020843000E-02 
6.35769976897000E-02 6.46637577363000E-02 6.57690944292000E-02 6.68933253102000E-02 
6.80367733491000E-02 6.91997670365000E-02 7.03826404779000E-02 7.15857334899000E-02 
7.28093916978000E-02 7.40539666351000E-02 7.53198158441000E-02 7.66073029785000E-02 
7.79167979088000E-02 7.92486768273000E-02 8.06033223571000E-02 8.19811236617000E-02 
8.33824765568000E-02 8.48077836238000E-02 8.62574543259000E-02 8.77319051256000E-02 
8.92315596038000E-02 9.07568485825000E-02 9.23082102475000E-02 9.38860902751000E-02 
9.54909419597000E-02 9.71232263440000E-02 9.87834123519000E-02 1.00471976923000E-01 
1.02189405148000E-01 1.03936190412000E-01 1.05712834532000E-01 1.07519847904000E-01 
1.09357749648000E-01 1.11227067757000E-01 1.13128339251000E-01 1.15062110327000E-01 
1.17028936520000E-01 1.19029382863000E-01 1.21064024044000E-01 1.23133444577000E-01 
1.25238238965000E-01 1.27379011876000E-01 1.29556378312000E-01 1.31770963789000E-01 
1.34023404513000E-01 1.36314347568000E-01 1.38644451098000E-01 1.41014384495000E-01 
1.43424828597000E-01 1.45876475876000E-01 1.48370030644000E-01 1.50906209251000E-01 
1.53485740291000E-01 1.56109364814000E-01 1.58777836538000E-01 1.61491922061000E-01 
1.64252401088000E-01 1.67060066652000E-01 1.69915725340000E-01 1.72820197528000E-01 
1.75774317614000E-01 1.78778934261000E-01 1.81834910636000E-01 1.84943124662000E-01 
1.88104469269000E-01 1.91319852650000E-01 1.94590198522000E-01 1.97916446393000E-01 
2.01299551830000E-01 2.04740486732000E-01 2.08240239614000E-01 2.11799815887000E-01 
2.15420238149000E-01 2.19102546477000E-01 2.22847798726000E-01 2.26657070836000E-01 
2.30531457136000E-01 2.34472070663000E-01 2.38480043479000E-01 2.42556526996000E-01 
2.46702692310000E-01 2.50919730533000E-01 2.55208853140000E-01 2.59571292311000E-01 
2.64008301292000E-01 2.68521154749000E-01 2.73111149138000E-01 2.77779603075000E-01 
2.82527857716000E-01 2.87357277144000E-01 2.92269248757000E-01 2.97265183670000E-01 
3.02346517118000E-01 3.07514708869000E-01 3.12771243645000E-01 3.18117631548000E-01 
3.23555408490000E-01 3.29086136639000E-01 3.34711404868000E-01 3.40432829207000E-01 
3.46252053309000E-01 3.52170748926000E-01 3.58190616385000E-01 3.64313385076000E-01 
3.70540813954000E-01 3.76874692036000E-01 3.83316838925000E-01 3.89869105325000E-01 
3.96533373574000E-01 4.03311558187000E-01 4.10205606408000E-01 4.17217498761000E-01 
4.24349249627000E-01 4.31602907822000E-01 4.38980557181000E-01 4.46484317158000E-01 
4.54116343441000E-01 4.61878828561000E-01 4.69774002531000E-01 4.77804133481000E-01 
4.85971528313000E-01 4.94278533361000E-01 5.02727535067000E-01 5.11320960666000E-01 
5.20061278882000E-01 5.28951000640000E-01 5.37992679784000E-01 5.47188913815000E-01 
5.56542344633000E-01 5.66055659296000E-01 5.75731590797000E-01 5.85572918843000E-01 
5.95582470657000E-01 6.05763121790000E-01 6.16117796946000E-01 6.26649470822000E-01 
6.37361168965000E-01 6.48255968639000E-01 6.59336999708000E-01 6.70607445538000E-01 
6.82070543911000E-01 6.93729587952000E-01 7.05587927080000E-01 7.17648967965000E-01 
7.29916175512000E-01 7.42393073851000E-01 7.55083247355000E-01 7.67990341664000E-01 
7.81118064737000E-01 7.94470187915000E-01 8.08050547004000E-01 8.21863043379000E-01 
8.35911645102000E-01 8.50200388065000E-01 8.64733377148000E-01 8.79514787397000E-01 
8.94548865225000E-01 9.09839929631000E-01 9.25392373443000E-01 9.41210664577000E-01 
9.57299347322000E-01 9.73663043644000E-01 9.90306454518000E-01 1.00723436127000E+00 
1.02445162697000E+00 1.04196319779000E+00 1.05977410448000E+00 1.07788946376000E+00 
1.09631447983000E+00 1.11505444583000E+00 1.13411474540000E+00 1.15350085418000E+00 
1.17321834144000E+00 1.19327287163000E+00 1.21367020602000E+00 1.23441620438000E+00 
1.25551682663000E+00 1.27697813456000E+00 1.29880629360000E+00 1.32100757456000E+00 
1.34358835543000E+00 1.36655512324000E+00 1.38991447589000E+00 
</PP_RAB>
  </PP_MESH>
  <PP_LOCAL>
-4.93937496487000E+00 -4.93937496487000E+00 -4.93937490015000E+00 -4.93937479184000E+00 
-4.93937463493000E+00 -4.93937442844000E+00 -4.93937416960000E+00 -4.93937385576000E+00 
-4.93937348431000E+00 -4.93937305243000E+00 -4.93937255722000E+00 -4.93937199565000E+00 
-4.93937136462000E+00 -4.93937066085000E+00 -4.93936988101000E+00 -4.93936902151000E+00 
-4.93936807880000E+00 -4.93936704902000E+00 -4.93936592827000E+00 -4.93936471244000E+00 
-4.93936339733000E+00 -4.93936197848000E+00 -4.93936045135000E+00 -4.93935881119000E+00 
-4.93935705311000E+00 -4.93935517189000E+00 -4.93935316232000E+00 -4.93935101884000E+00 
-4.93934873578000E+00 -4.93934630712000E+00 -4.93934372677000E+00 -4.93934098829000E+00 
-4.93933808509000E+00 -4.93933501024000E+00 -4.93933175668000E+00 -4.93932831692000E+00 
-4.93932468334000E+00 -4.93932084793000E+00 -4.93931680245000E+00 -4.93931253829000E+00 
-4.93930804664000E+00 -4.93930331823000E+00 -4.93929834352000E+00 -4.93929311253000E+00 
-4.93928761506000E+00 -4.93928184040000E+00 -4.93927577759000E+00 -4.93926941503000E+00 
-4.93926274101000E+00 -4.93925574308000E+00 -4.93924840852000E+00 -4.93924072412000E+00 
-4.93923267620000E+00 -4.93922425045000E+00 -4.93921543222000E+00 -4.93920620621000E+00 
-4.93919655662000E+00 -4.93918646701000E+00 -4.93917592044000E+00 -4.93916489923000E+00 
-4.93915338524000E+00 -4.93914135946000E+00 -4.93912880237000E+00 -4.93911569361000E+00 
-4.93910201220000E+00 -4.93908773631000E+00 -4.93907284346000E+00 -4.93905731012000E+00 
-4.93904111220000E+00 -4.93902422450000E+00 -4.93900662113000E+00 -4.93898827505000E+00 
-4.93896915849000E+00 -4.93894924243000E+00 -4.93892849707000E+00 -4.93890689131000E+00 
-4.93888439316000E+00 -4.93886096927000E+00 -4.93883658533000E+00 -4.93881120554000E+00 
-4.93878479315000E+00 -4.93875730978000E+00 -4.93872871596000E+00 -4.93869897055000E+00 
-4.93866803127000E+00 -4.93863585399000E+00 -4.93860239339000E+00 -4.93856760214000E+00 
-4.93853143166000E+00 -4.93849383126000E+00 -4.93845474881000E+00 -4.93841412999000E+00 
-4.93837191896000E+00 -4.93832805749000E+00 -4.93828248574000E+00 -4.93823514130000E+00 
-4.93818596007000E+00 -4.93813487517000E+00 -4.93808181787000E+00 -4.93802671663000E+00 
-4.93796949774000E+00 -4.93791008455000E+00 -4.93784839817000E+00 -4.93778435647000E+00 
-4.93771787491000E+00 -4.93764886553000E+00 -4.93757723787000E+00 -4.93750289770000E+00 
-4.93742574809000E+00 -4.93734568820000E+00 -4.93726261428000E+00 -4.93717641826000E+00 
-4.93708698914000E+00 -4.93699421122000E+00 -4.93689796568000E+00 -4.93679812869000E+00 
-4.93669457303000E+00 -4.93658716617000E+00 -4.93647577196000E+00 -4.93636024866000E+00 
-4.93624045053000E+00 -4.93611622584000E+00 -4.93598741877000E+00 -4.93585386697000E+00 