<UPF version="2.0.1">
  <PP_INFO>
Generated using Vanderbilt code, version   7  3  6
Author: kfg        Generation date:   13    5 2013
Automatically converted from original USPP format to UPF.v1.

Futher converted to UPF.v2 format.
Convert Q_IJ to Q_IJL use the same routine as 'upflib/upf_to_internal.f90' of QE.
The conversion is done by using PseudoPotentialIO.jl package.
Converted by: JYU on 2024-04-30

1        The Pseudo was generated with a Scalar-Relativistic Calculation
2.00000000000E+00    Local Potential cutoff radius
nl pn  l   occ               Rcut            Rcut US             E pseu
5S  5  0  2.00      0.00000000000      1.50000000000     -6.03224285000
5P  5  1  6.00      0.00000000000      1.60000000000     -3.72093114200
6S  6  0  0.00      0.00000000000      1.50000000000     -1.28611367600
6P  6  1  0.00      0.00000000000      1.60000000000     -0.88318179500
5D  5  2  2.00      0.00000000000      1.75000000000     -1.22775559700
</PP_INFO>
  <PP_HEADER element="Hf" pseudo_type="US" relativistic="scalar" is_ultrasoft="T" is_paw="F" is_coulomb="F" has_so="F" has_wfc="F" has_gipaw="F" core_correction="T" functional="PBE" z_valence="12.0" total_psenergy="-156.798355024" wfc_cutoff="0.0" rho_cutoff="0.0" l_max="3" mesh_size="921" number_of_wfc="5" number_of_proj="8"/>
  <PP_MESH>
    <PP_R>
0.00000000000000E+00 5.88483459444000E-07 1.18702622233000E-06 1.79580023842000E-06 
2.41498039669000E-06 3.04474457564000E-06 3.68527369432000E-06 4.33675176435000E-06 
4.99936594277000E-06 5.67330658582000E-06 6.35876730361000E-06 7.05594501573000E-06 
7.76504000784000E-06 8.48625598922000E-06 9.21980015127000E-06 9.96588322702000E-06 
1.07247195517000E-05 1.14965271243000E-05 1.22815276703000E-05 1.30799467050000E-05 
1.38920135988000E-05 1.47179616428000E-05 1.55580281159000E-05 1.64124543530000E-05 
1.72814858142000E-05 1.81653721554000E-05 1.90643673000000E-05 1.99787295119000E-05 
2.09087214698000E-05 2.18546103422000E-05 2.28166678649000E-05 2.37951704182000E-05 
2.47903991071000E-05 2.58026398415000E-05 2.68321834185000E-05 2.78793256061000E-05 
2.89443672280000E-05 3.00276142501000E-05 3.11293778682000E-05 3.22499745977000E-05 
3.33897263644000E-05 3.45489605969000E-05 3.57280103207000E-05 3.69272142541000E-05 
3.81469169051000E-05 3.93874686707000E-05 4.06492259374000E-05 4.19325511836000E-05 
4.32378130839000E-05 4.45653866147000E-05 4.59156531623000E-05 4.72890006321000E-05 
4.86858235601000E-05 5.01065232267000E-05 5.15515077714000E-05 5.30211923102000E-05 
5.45159990551000E-05 5.60363574351000E-05 5.75827042198000E-05 5.91554836447000E-05 
6.07551475389000E-05 6.23821554548000E-05 6.40369748003000E-05 6.57200809731000E-05 
6.74319574970000E-05 6.91730961609000E-05 7.09439971603000E-05 7.27451692408000E-05 
7.45771298442000E-05 7.64404052575000E-05 7.83355307636000E-05 8.02630507953000E-05 
8.22235190919000E-05 8.42174988579000E-05 8.62455629253000E-05 8.83082939174000E-05 
9.04062844172000E-05 9.25401371365000E-05 9.47104650900000E-05 9.69178917709000E-05 
9.91630513303000E-05 1.01446588759000E-04 1.03769160073000E-04 1.06131432502000E-04 
1.08534084682000E-04 1.10977806847000E-04 1.13463301033000E-04 1.15991281272000E-04 
1.18562473806000E-04 1.21177617288000E-04 1.23837462998000E-04 1.26542775058000E-04 
1.29294330652000E-04 1.32092920249000E-04 1.34939347830000E-04 1.37834431117000E-04 
1.40779001813000E-04 1.43773905835000E-04 1.46820003562000E-04 1.49918170078000E-04 
1.53069295427000E-04 1.56274284867000E-04 1.59534059127000E-04 1.62849554680000E-04 
1.66221724001000E-04 1.69651535851000E-04 1.73139975548000E-04 1.76688045253000E-04 
1.80296764258000E-04 1.83967169278000E-04 1.87700314749000E-04 1.91497273132000E-04 
1.95359135219000E-04 1.99287010449000E-04 2.03282027225000E-04 2.07345333237000E-04 
2.11478095794000E-04 2.15681502159000E-04 2.19956759890000E-04 2.24305097185000E-04 
2.28727763238000E-04 2.33226028594000E-04 2.37801185519000E-04 2.42454548366000E-04 
2.47187453957000E-04 2.52001261964000E-04 2.56897355300000E-04 2.61877140519000E-04 
2.66942048216000E-04 2.72093533442000E-04 2.77333076118000E-04 2.82662181464000E-04 
2.88082380428000E-04 2.93595230130000E-04 2.99202314303000E-04 3.04905243754000E-04 
3.10705656826000E-04 3.16605219864000E-04 3.22605627698000E-04 3.28708604130000E-04 
3.34915902427000E-04 3.41229305825000E-04 3.47650628044000E-04 3.54181713804000E-04 
3.60824439360000E-04 3.67580713039000E-04 3.74452475787000E-04 3.81441701729000E-04 
3.88550398734000E-04 3.95780608994000E-04 4.03134409607000E-04 4.10613913179000E-04 
4.18221268426000E-04 4.25958660794000E-04 4.33828313086000E-04 4.41832486101000E-04 
4.49973479283000E-04 4.58253631381000E-04 4.66675321124000E-04 4.75240967900000E-04 
4.83953032453000E-04 4.92814017591000E-04 5.01826468903000E-04 5.10992975493000E-04 
5.20316170719000E-04 5.29798732957000E-04 5.39443386362000E-04 5.49252901657000E-04 
5.59230096925000E-04 5.69377838422000E-04 5.79699041398000E-04 5.90196670935000E-04 
6.00873742797000E-04 6.11733324302000E-04 6.22778535197000E-04 6.34012548558000E-04 
6.45438591698000E-04 6.57059947100000E-04 6.68879953353000E-04 6.80902006117000E-04 
6.93129559095000E-04 7.05566125027000E-04 7.18215276696000E-04 7.31080647959000E-04 
7.44165934789000E-04 7.57474896336000E-04 7.71011356006000E-04 7.84779202563000E-04 
7.98782391241000E-04 8.13024944887000E-04 8.27510955111000E-04 8.42244583463000E-04 
8.57230062628000E-04 8.72471697647000E-04 8.87973867144000E-04 9.03741024594000E-04 
9.19777699596000E-04 9.36088499175000E-04 9.52678109110000E-04 9.69551295275000E-04 
9.86712905008000E-04 1.00416786851000E-03 1.02192120025000E-03 1.03997800042000E-03 
1.05834345639000E-03 1.07702284420000E-03 1.09602153007000E-03 1.11534497196000E-03 
1.13499872113000E-03 1.15498842371000E-03 1.17531982235000E-03 1.19599875788000E-03 
1.21703117096000E-03 1.23842310378000E-03 1.26018070184000E-03 1.28231021567000E-03 
1.30481800265000E-03 1.32771052885000E-03 1.35099437083000E-03 1.37467621759000E-03 
1.39876287247000E-03 1.42326125510000E-03 1.44817840340000E-03 1.47352147556000E-03 
1.49929775218000E-03 1.52551463827000E-03 1.55217966545000E-03 1.57930049404000E-03 
1.60688491536000E-03 1.63494085385000E-03 1.66347636946000E-03 1.69249965989000E-03 
1.72201906296000E-03 1.75204305903000E-03 1.78258027340000E-03 1.81363947884000E-03 
1.84522959805000E-03 1.87735970627000E-03 1.91003903383000E-03 1.94327696890000E-03 
1.97708306008000E-03 2.01146701921000E-03 2.04643872413000E-03 2.08200822154000E-03 
2.11818572987000E-03 2.15498164221000E-03 2.19240652932000E-03 2.23047114265000E-03 
2.26918641742000E-03 2.30856347577000E-03 2.34861362999000E-03 2.38934838570000E-03 
2.43077944520000E-03 2.47291871085000E-03 2.51577828843000E-03 2.55937049068000E-03 
2.60370784078000E-03 2.64880307601000E-03 2.69466915135000E-03 2.74131924323000E-03 
2.78876675333000E-03 2.83702531240000E-03 2.88610878418000E-03 2.93603126942000E-03 
2.98680710986000E-03 3.03845089244000E-03 3.09097745340000E-03 3.14440188261000E-03 
3.19873952789000E-03 3.25400599937000E-03 3.31021717405000E-03 3.36738920032000E-03 
3.42553850259000E-03 3.48468178602000E-03 3.54483604134000E-03 3.60601854971000E-03 
3.66824688766000E-03 3.73153893221000E-03 3.79591286593000E-03 3.86138718221000E-03 
3.92798069054000E-03 3.99571252196000E-03 4.06460213452000E-03 4.13466931885000E-03 
4.20593420392000E-03 4.27841726273000E-03 4.35213931828000E-03 4.42712154948000E-03 
4.50338549728000E-03 4.58095307083000E-03 4.65984655379000E-03 4.74008861074000E-03 
4.82170229367000E-03 4.90471104861000E-03 4.98913872236000E-03 5.07500956937000E-03 
5.16234825867000E-03 5.25117988097000E-03 5.34152995587000E-03 5.43342443922000E-03 
5.52688973050000E-03 5.62195268050000E-03 5.71864059896000E-03 5.81698126245000E-03 
5.91700292233000E-03 6.01873431290000E-03 6.12220465961000E-03 6.22744368749000E-03 
6.33448162969000E-03 6.44334923612000E-03 6.55407778234000E-03 6.66669907853000E-03 
6.78124547860000E-03 6.89774988952000E-03 7.01624578075000E-03 7.13676719386000E-03 
7.25934875233000E-03 7.38402567146000E-03 7.51083376853000E-03 7.63980947304000E-03 
7.77098983722000E-03 7.90441254665000E-03 8.04011593109000E-03 8.17813897550000E-03 
8.31852133122000E-03 8.46130332739000E-03 8.60652598253000E-03 8.75423101627000E-03 
8.90446086143000E-03 9.05725867613000E-03 9.21266835623000E-03 9.37073454791000E-03 
9.53150266054000E-03 9.69501887969000E-03 9.86133018040000E-03 1.00304843407000E-02 
1.02025299553000E-02 1.03775164495000E-02 1.05554940937000E-02 1.07365140173000E-02 
1.09206282238000E-02 1.11078896058000E-02 1.12983519598000E-02 1.14920700018000E-02 
1.16890993835000E-02 1.18894967074000E-02 1.20933195440000E-02 1.23006264474000E-02 
1.25114769731000E-02 1.27259316942000E-02 1.29440522195000E-02 1.31659012108000E-02 
1.33915424009000E-02 1.36210406123000E-02 1.38544617753000E-02 1.40918729474000E-02 
1.43333423320000E-02 1.45789392989000E-02 1.48287344031000E-02 1.50827994060000E-02 
1.53412072955000E-02 1.56040323073000E-02 1.58713499458000E-02 1.61432370064000E-02 
1.64197715967000E-02 1.67010331600000E-02 1.69871024971000E-02 1.72780617903000E-02 
1.75739946266000E-02 1.78749860217000E-02 1.81811224446000E-02 1.84924918424000E-02 
1.88091836656000E-02 1.91312888935000E-02 1.94589000607000E-02 1.97921112835000E-02 
2.01310182873000E-02 2.04757184332000E-02 2.08263107471000E-02 2.11828959473000E-02 
2.15455764738000E-02 2.19144565178000E-02 2.22896420513000E-02 2.26712408579000E-02 
2.30593625636000E-02 2.34541186681000E-02 2.38556225773000E-02 2.42639896355000E-02 
2.46793371586000E-02 2.51017844680000E-02 2.55314529245000E-02 2.59684659637000E-02 
2.64129491309000E-02 2.68650301175000E-02 2.73248387976000E-02 2.77925072654000E-02 
2.82681698729000E-02 2.87519632689000E-02 2.92440264378000E-02 2.97445007399000E-02 
3.02535299517000E-02 3.07712603074000E-02 3.12978405410000E-02 3.18334219288000E-02 
3.23781583330000E-02 3.29322062458000E-02 3.34957248344000E-02 3.40688759868000E-02 
3.46518243583000E-02 3.52447374186000E-02 3.58477855002000E-02 3.64611418471000E-02 
3.70849826648000E-02 3.77194871706000E-02 3.83648376454000E-02 3.90212194859000E-02 
3.96888212579000E-02 4.03678347506000E-02 4.10584550312000E-02 4.17608805017000E-02 
4.24753129552000E-02 4.32019576345000E-02 4.39410232905000E-02 4.46927222425000E-02 
4.54572704389000E-02 4.62348875197000E-02 4.70257968793000E-02 4.78302257306000E-02 
4.86484051704000E-02 4.94805702458000E-02 5.03269600219000E-02 5.11878176499000E-02 
5.20633904377000E-02 5.29539299203000E-02 5.38596919326000E-02 5.47809366823000E-02 
5.57179288253000E-02 5.66709375413000E-02 5.76402366113000E-02 5.86261044962000E-02 
5.96288244166000E-02 6.06486844347000E-02 6.16859775364000E-02 6.27410017161000E-02 
6.38140600617000E-02 6.49054608421000E-02 6.60155175957000E-02 6.71445492203000E-02 
6.82928800649000E-02 6.94608400226000E-02 7.06487646257000E-02 7.18569951421000E-02 
7.30858786729000E-02 7.43357682527000E-02 7.56070229504000E-02 7.69000079730000E-02 
7.82150947701000E-02 7.95526611406000E-02 8.09130913414000E-02 8.22967761980000E-02 
8.37041132160000E-02 8.51355066963000E-02 8.65913678505000E-02 8.80721149193000E-02 
8.95781732926000E-02 9.11099756320000E-02 9.26679619946000E-02 9.42525799597000E-02 
9.58642847574000E-02 9.75035393993000E-02 9.91708148115000E-02 1.00866589970000E-01 
1.02591352038000E-01 1.04345596507000E-01 1.06129827337000E-01 1.07944557102000E-01 
1.09790307140000E-01 1.11667607700000E-01 1.13576998092000E-01 1.15519026848000E-01 
1.17494251875000E-01 1.19503240618000E-01 1.21546570220000E-01 1.23624827689000E-01 
1.25738610069000E-01 1.27888524609000E-01 1.30075188938000E-01 1.32299231242000E-01 
1.34561290445000E-01 1.36862016393000E-01 1.39202070040000E-01 1.41582123638000E-01 
1.44002860932000E-01 1.46464977350000E-01 1.48969180213000E-01 1.51516188929000E-01 
1.54106735204000E-01 1.56741563252000E-01 1.59421430009000E-01 1.62147105348000E-01 
1.64919372302000E-01 1.67739027292000E-01 1.70606880348000E-01 1.73523755350000E-01 
1.76490490259000E-01 1.79507937360000E-01 1.82576963509000E-01 1.85698450377000E-01 
1.88873294707000E-01 1.92102408569000E-01 1.95386719626000E-01 1.98727171397000E-01 
2.02124723529000E-01 2.05580352074000E-01 2.09095049765000E-01 2.12669826308000E-01 
2.16305708668000E-01 2.20003741362000E-01 2.23764986763000E-01 2.27590525406000E-01 
2.31481456293000E-01 2.35438897213000E-01 2.39463985063000E-01 2.43557876172000E-01 
2.47721746636000E-01 2.51956792654000E-01 2.56264230873000E-01 2.60645298738000E-01 
2.65101254843000E-01 2.69633379299000E-01 2.74242974098000E-01 2.78931363486000E-01 
2.83699894348000E-01 2.88549936590000E-01 2.93482883535000E-01 2.98500152324000E-01 
3.03603184321000E-01 3.08793445527000E-01 3.14072427006000E-01 3.19441645305000E-01 
3.24902642898000E-01 3.30456988623000E-01 3.36106278137000E-01 3.41852134371000E-01 
3.47696207998000E-01 3.53640177907000E-01 3.59685751687000E-01 3.65834666113000E-01 
3.72088687650000E-01 3.78449612957000E-01 3.84919269405000E-01 3.91499515600000E-01 
3.98192241921000E-01 4.04999371057000E-01 4.11922858566000E-01 4.18964693432000E-01 
4.26126898637000E-01 4.33411531744000E-01 4.40820685488000E-01 4.48356488374000E-01 
4.56021105294000E-01 4.63816738143000E-01 4.71745626456000E-01 4.79810048049000E-01 
4.88012319675000E-01 4.96354797686000E-01 5.04839878717000E-01 5.13470000366000E-01 
5.22247641900000E-01 5.31175324965000E-01 5.40255614314000E-01 5.49491118536000E-01 
5.58884490813000E-01 5.68438429681000E-01 5.78155679799000E-01 5.88039032747000E-01 
5.98091327820000E-01 6.08315452848000E-01 6.18714345025000E-01 6.29290991750000E-01 
6.40048431490000E-01 6.50989754650000E-01 6.62118104459000E-01 6.73436677877000E-01 
6.84948726512000E-01 6.96657557551000E-01 7.08566534716000E-01 7.20679079225000E-01 
7.32998670779000E-01 7.45528848556000E-01 7.58273212236000E-01 7.71235423026000E-01 
7.84419204719000E-01 7.97828344761000E-01 8.11466695339000E-01 8.25338174485000E-01 
8.39446767208000E-01 8.53796526634000E-01 8.68391575170000E-01 8.83236105692000E-01 
8.98334382746000E-01 9.13690743775000E-01 9.29309600364000E-01 9.45195439508000E-01 
9.61352824903000E-01 9.77786398251000E-01 9.94500880600000E-01 1.01150107370000E+00 
1.02879186137000E+00 1.04637821093000E+00 1.06426517459000E+00 1.08245789093000E+00 
1.10096158637000E+00 1.11978157665000E+00 1.13892326841000E+00 1.15839216067000E+00 
1.17819384647000E+00 1.19833401445000E+00 1.21881845050000E+00 1.23965303940000E+00 
1.26084376651000E+00 1.28239671953000E+00 1.30431809021000E+00 1.32661417612000E+00 
1.34929138250000E+00 1.37235622408000E+00 1.39581532694000E+00 1.41967543042000E+00 
1.44394338906000E+00 1.46862617460000E+00 1.49373087790000E+00 1.51926471107000E+00 
1.54523500948000E+00 1.57164923390000E+00 1.59851497262000E+00 1.62583994365000E+00 
1.65363199693000E+00 1.68189911657000E+00 1.71064942317000E+00 1.73989117614000E+00 
1.76963277606000E+00 1.79988276713000E+00 1.83064983957000E+00 1.86194283219000E+00 
1.89377073483000E+00 1.92614269106000E+00 1.95906800069000E+00 1.99255612255000E+00 
2.02661667711000E+00 2.06125944931000E+00 2.09649439136000E+00 2.13233162557000E+00 
2.16878144728000E+00 2.20585432782000E+00 2.24356091752000E+00 2.28191204874000E+00 
2.32091873903000E+00 2.36059219425000E+00 2.40094381182000E+00 2.44198518398000E+00 
2.48372810112000E+00 2.52618455516000E+00 2.56936674304000E+00 2.61328707015000E+00 
2.65795815396000E+00 2.70339282761000E+00 2.74960414359000E+00 2.79660537752000E+00 
2.84441003195000E+00 2.89303184023000E+00 2.94248477047000E+00 2.99278302953000E+00 
3.04394106714000E+00 3.09597358000000E+00 3.14889551605000E+00 3.20272207874000E+00 
3.25746873140000E+00 3.31315120168000E+00 3.36978548607000E+00 3.42738785452000E+00 
3.48597485507000E+00 3.54556331863000E+00 3.60617036381000E+00 3.66781340184000E+00 
3.73051014158000E+00 3.79427859458000E+00 3.85913708029000E+00 3.92510423130000E+00 
3.99219899869000E+00 4.06044065749000E+00 4.12984881220000E+00 4.20044340246000E+00 
4.27224470871000E+00 4.34527335809000E+00 4.41955033030000E+00 4.49509696370000E+00 
4.57193496136000E+00 4.65008639735000E+00 4.72957372308000E+00 4.81041977370000E+00 
4.89264777473000E+00 4.97628134867000E+00 5.06134452185000E+00 5.14786173125000E+00 
5.23585783160000E+00 5.32535810248000E+00 5.41638825559000E+00 5.50897444211000E+00 
5.60314326029000E+00 5.69892176298000E+00 5.79633746551000E+00 5.89541835352000E+00 
5.99619289103000E+00 6.09869002862000E+00 6.20293921173000E+00 6.30897038913000E+00 
6.41681402153000E+00 6.52650109032000E+00 6.63806310647000E+00 6.75153211958000E+00 
6.86694072712000E+00 6.98432208374000E+00 7.10370991083000E+00 7.22513850621000E+00 
7.34864275395000E+00 7.47425813445000E+00 7.60202073456000E+00 7.73196725802000E+00 
7.86413503594000E+00 7.99856203757000E+00 8.13528688119000E+00 8.27434884519000E+00 
8.41578787938000E+00 8.55964461648000E+00 8.70596038372000E+00 8.85477721481000E+00 
9.00613786194000E+00 9.16008580808000E+00 9.31666527951000E+00 9.47592125849000E+00 
9.63789949616000E+00 9.80264652575000E+00 9.97020967588000E+00 1.01406370842000E+01 
1.03139777112000E+01 1.04902813544000E+01 1.06695986622000E+01 1.08519811492000E+01 
1.10374812103000E+01 1.12261521360000E+01 1.14180481279000E+01 1.16132243139000E+01 
1.18117367645000E+01 1.20136425083000E+01 1.22189995491000E+01 1.24278668818000E+01 
1.26403045102000E+01 1.28563734633000E+01 1.30761358136000E+01 1.32996546946000E+01 
1.35269943189000E+01 1.37582199968000E+01 1.39933981550000E+01 1.42325963555000E+01 
1.44758833155000E+01 1.47233289265000E+01 1.49750042749000E+01 1.52309816622000E+01 
1.54913346256000E+01 1.57561379596000E+01 1.60254677370000E+01 1.62994013311000E+01 
1.65780174377000E+01 1.68613960978000E+01 1.71496187205000E+01 1.74427681068000E+01 
1.77409284727000E+01 1.80441854740000E+01 1.83526262304000E+01 1.86663393511000E+01 
1.89854149598000E+01 1.93099447207000E+01 1.96400218650000E+01 1.99757412174000E+01 
2.03171992236000E+01 2.06644939778000E+01 2.10177252512000E+01 2.13769945202000E+01 
2.17424049960000E+01 2.21140616539000E+01 2.24920712637000E+01 2.28765424202000E+01 
2.32675855745000E+01 2.36653130658000E+01 2.40698391536000E+01 2.44812800502000E+01 
2.48997539547000E+01 2.53253810866000E+01 2.57582837203000E+01 2.61985862204000E+01 
2.66464150772000E+01 2.71018989434000E+01 2.75651686705000E+01 2.80363573471000E+01 
2.85156003365000E+01 2.90030353160000E+01 2.94988023161000E+01 3.00030437613000E+01 
3.05159045102000E+01 3.10375318979000E+01 3.15680757778000E+01 3.21076885648000E+01 
3.26565252794000E+01 3.32147435917000E+01 3.37825038669000E+01 3.43599692117000E+01 
3.49473055206000E+01 3.55446815240000E+01 3.61522688365000E+01 3.67702420062000E+01 
3.73987785647000E+01 3.80380590785000E+01 3.86882672005000E+01 3.93495897229000E+01 
4.00222166309000E+01 4.07063411571000E+01 4.14021598374000E+01 4.21098725668000E+01 
4.28296826577000E+01 4.35617968976000E+01 4.43064256086000E+01 4.50637827082000E+01 
4.58340857705000E+01 4.66175560885000E+01 4.74144187382000E+01 4.82249026428000E+01 
4.90492406387000E+01 4.98876695421000E+01 5.07404302175000E+01 5.16077676465000E+01 
5.24899309984000E+01 5.33871737017000E+01 5.42997535167000E+01 5.52279326101000E+01 
5.61719776297000E+01 5.71321597814000E+01 5.81087549069000E+01 5.91020435632000E+01 
6.01123111027000E+01 6.11398477560000E+01 6.21849487142000E+01 6.32479142148000E+01 
6.43290496272000E+01 6.54286655405000E+01 6.65470778533000E+01 6.76846078637000E+01 
6.88415823620000E+01 7.00183337248000E+01 7.12152000097000E+01 7.24325250535000E+01 
7.36706585699000E+01 7.49299562509000E+01 7.62107798682000E+01 7.75134973778000E+01 
7.88384830250000E+01 8.01861174528000E+01 8.15567878103000E+01 8.29508878646000E+01 
8.43688181138000E+01 8.58109859016000E+01 8.72778055351000E+01 8.87696984032000E+01 
9.02870930976000E+01 9.18304255367000E+01 9.34001390900000E+01 9.49966847057000E+01 
9.66205210406000E+01 9.82721145913000E+01 9.99519398289000E+01 1.01660479334000E+02 
1.03398223938000E+02 1.05165672861000E+02 1.06963333857000E+02 1.08791723358000E+02 
1.10651366626000E+02 1.12542797900000E+02 1.14466560553000E+02 1.16423207243000E+02 
1.18413300077000E+02 1.20437410771000E+02 1.22496120813000E+02 1.24590021629000E+02 
1.26719714758000E+02 1.28885812019000E+02 1.31088935689000E+02 1.33329718683000E+02 
1.35608804736000E+02 1.37926848584000E+02 1.40284516156000E+02 1.42682484766000E+02 
1.45121443301000E+02 1.47602092430000E+02 1.50125144793000E+02 1.52691325215000E+02 
1.55301370910000E+02 1.57956031693000E+02 1.60656070198000E+02 1.63402262093000E+02 
1.66195396305000E+02 1.69036275249000E+02 1.71925715054000E+02 1.74864545799000E+02 
1.77853611755000E+02 1.80893771621000E+02 1.83985898778000E+02 1.87130881533000E+02 
1.90329623378000E+02 1.93583043252000E+02 1.96892075798000E+02 2.00257671637000E+02 
2.03680797640000E+02 
</PP_R>
    <PP_RAB>
5.83510399404000E-07 5.93484695326000E-07 6.03629487918000E-07 6.13947691580000E-07 
6.24442270534000E-07 6.35116239669000E-07 6.45972665409000E-07 6.57014666596000E-07 
6.68245415383000E-07 6.79668138146000E-07 6.91286116414000E-07 7.03102687806000E-07 
7.15121246994000E-07 7.27345246679000E-07 7.39778198578000E-07 7.52423674438000E-07 
7.65285307060000E-07 7.78366791341000E-07 7.91671885340000E-07 8.05204411352000E-07 
8.18968257010000E-07 8.32967376400000E-07 8.47205791199000E-07 8.61687591828000E-07 
8.76416938627000E-07 8.91398063054000E-07 9.06635268894000E-07 9.22132933504000E-07 
9.37895509061000E-07 9.53927523848000E-07 9.70233583554000E-07 9.86818372594000E-07 
1.00368665546000E-06 1.02084327807000E-06 1.03829316921000E-06 1.05604134188000E-06 
1.07409289479000E-06 1.09245301381000E-06 1.11112697344000E-06 1.13012013835000E-06 
1.14943796490000E-06 1.16908600274000E-06 1.18906989637000E-06 1.20939538676000E-06 
1.23006831305000E-06 1.25109461416000E-06 1.27248033055000E-06 1.29423160591000E-06 
1.31635468896000E-06 1.33885593525000E-06 1.36174180893000E-06 1.38501888469000E-06 
1.40869384958000E-06 1.43277350494000E-06 1.45726476841000E-06 1.48217467585000E-06 
1.50751038339000E-06 1.53327916949000E-06 1.55948843703000E-06 1.58614571542000E-06 
1.61325866277000E-06 1.64083506813000E-06 1.66888285365000E-06 1.69741007691000E-06 
1.72642493325000E-06 1.75593575806000E-06 1.78595102924000E-06 1.81647936959000E-06 
1.84752954931000E-06 1.87911048851000E-06 1.91123125980000E-06 1.94390109085000E-06 
1.97712936706000E-06 2.01092563428000E-06 2.04529960153000E-06 2.08026114377000E-06 
2.11582030478000E-06 2.15198730002000E-06 2.18877251957000E-06 2.22618653111000E-06 
2.26424008297000E-06 2.30294410718000E-06 2.34230972267000E-06 2.38234823842000E-06 
2.42307115672000E-06 2.46449017648000E-06 2.50661719657000E-06 2.54946431927000E-06 
2.59304385374000E-06 2.63736831954000E-06 2.68245045021000E-06 2.72830319699000E-06 
2.77493973249000E-06 2.82237345447000E-06 2.87061798973000E-06 2.91968719800000E-06 
2.96959517589000E-06 3.02035626101000E-06 3.07198503605000E-06 3.12449633293000E-06 
3.17790523716000E-06 3.23222709206000E-06 3.28747750326000E-06 3.34367234313000E-06 
3.40082775536000E-06 3.45896015959000E-06 3.51808625615000E-06 3.57822303081000E-06 
3.63938775971000E-06 3.70159801428000E-06 3.76487166633000E-06 3.82922689316000E-06 
3.89468218278000E-06 3.96125633922000E-06 4.02896848796000E-06 4.09783808138000E-06 
4.16788490438000E-06 4.23912908006000E-06 4.31159107550000E-06 4.38529170762000E-06 
4.46025214919000E-06 4.53649393489000E-06 4.61403896752000E-06 4.69290952425000E-06 
4.77312826308000E-06 4.85471822930000E-06 4.93770286212000E-06 5.02210600142000E-06 
5.10795189459000E-06 5.19526520351000E-06 5.28407101158000E-06 5.37439483100000E-06 
5.46626261006000E-06 5.55970074058000E-06 5.65473606555000E-06 5.75139588677000E-06 
5.84970797272000E-06 5.94970056659000E-06 6.05140239429000E-06 6.15484267280000E-06 
6.26005111851000E-06 6.36705795577000E-06 6.47589392557000E-06 6.58659029438000E-06 
6.69917886313000E-06 6.81369197633000E-06 6.93016253138000E-06 7.04862398803000E-06 
7.16911037795000E-06 7.29165631455000E-06 7.41629700292000E-06 7.54306824990000E-06 
7.67200647442000E-06 7.80314871794000E-06 7.93653265510000E-06 8.07219660450000E-06 
8.21017953979000E-06 8.35052110078000E-06 8.49326160490000E-06 8.63844205873000E-06 
8.78610416979000E-06 8.93629035857000E-06 9.08904377064000E-06 9.24440828911000E-06 
9.40242854719000E-06 9.56314994105000E-06 9.72661864283000E-06 9.89288161392000E-06 
1.00619866185000E-05 1.02339822371000E-05 1.04089178807000E-05 1.05868438051000E-05 
1.07678111248000E-05 1.09518718283000E-05 1.11390787926000E-05 1.13294857987000E-05 
1.15231475468000E-05 1.17201196723000E-05 1.19204587613000E-05 1.21242223675000E-05 
1.23314690281000E-05 1.25422582812000E-05 1.27566506824000E-05 1.29747078224000E-05 
1.31964923450000E-05 1.34220679644000E-05 1.36514994843000E-05 1.38848528157000E-05 
1.41221949967000E-05 1.43635942111000E-05 1.46091198081000E-05 1.48588423225000E-05 
1.51128334948000E-05 1.53711662917000E-05 1.56339149273000E-05 1.59011548840000E-05 
1.61729629349000E-05 1.64494171651000E-05 1.67305969945000E-05 1.70165832007000E-05 
1.73074579419000E-05 1.76033047809000E-05 1.79042087087000E-05 1.82102561692000E-05 
1.85215350840000E-05 1.88381348773000E-05 1.91601465023000E-05 1.94876624666000E-05 
1.98207768592000E-05 2.01595853775000E-05 2.05041853545000E-05 2.08546757872000E-05 
2.12111573647000E-05 2.15737324973000E-05 2.19425053458000E-05 2.23175818514000E-05 
2.26990697664000E-05 2.30870786850000E-05 2.34817200744000E-05 2.38831073077000E-05 
2.42913556955000E-05 2.47065825198000E-05 2.51289070671000E-05 2.55584506632000E-05 
2.59953367076000E-05 2.64396907091000E-05 2.68916403222000E-05 2.73513153832000E-05 
2.78188479478000E-05 2.82943723291000E-05 2.87780251361000E-05 2.92699453128000E-05 
2.97702741784000E-05 3.02791554676000E-05 3.07967353724000E-05 3.13231625832000E-05 
3.18585883325000E-05 3.24031664378000E-05 3.29570533458000E-05 3.35204081774000E-05 
3.40933927736000E-05 3.46761717419000E-05 3.52689125033000E-05 3.58717853408000E-05 
3.64849634480000E-05 3.71086229793000E-05 3.77429430998000E-05 3.83881060375000E-05 
3.90442971353000E-05 3.97117049040000E-05 4.03905210772000E-05 4.10809406654000E-05 
4.17831620130000E-05 4.24973868545000E-05 4.32238203728000E-05 4.39626712583000E-05 
4.47141517686000E-05 4.54784777894000E-05 4.62558688968000E-05 4.70465484203000E-05 
4.78507435068000E-05 4.86686851859000E-05 4.95006084364000E-05 5.03467522539000E-05 
5.12073597191000E-05 5.20826780678000E-05 5.29729587621000E-05 5.38784575624000E-05 
5.47994346009000E-05 5.57361544565000E-05 5.66888862308000E-05 5.76579036252000E-05 
5.86434850195000E-05 5.96459135523000E-05 6.06654772018000E-05 6.17024688690000E-05 
6.27571864615000E-05 6.38299329793000E-05 6.49210166017000E-05 6.60307507758000E-05 
6.71594543069000E-05 6.83074514496000E-05 6.94750720014000E-05 7.06626513969000E-05 
7.18705308047000E-05 7.30990572254000E-05 7.43485835906000E-05 7.56194688652000E-05 
7.69120781499000E-05 7.82267827863000E-05 7.95639604637000E-05 8.09239953273000E-05 
8.23072780888000E-05 8.37142061385000E-05 8.51451836598000E-05 8.66006217447000E-05 
8.80809385124000E-05 8.95865592293000E-05 9.11179164311000E-05 9.26754500471000E-05 
9.42596075266000E-05 9.58708439672000E-05 9.75096222462000E-05 9.91764131528000E-05 
1.00871695524000E-04 1.02595956381000E-04 1.04349691071000E-04 1.06133403408000E-04 
1.07947605818000E-04 1.09792819486000E-04 1.11669574507000E-04 1.13578410036000E-04 
1.15519874443000E-04 1.17494525476000E-04 1.19502930412000E-04 1.21545666228000E-04 
1.23623319761000E-04 1.25736487882000E-04 1.27885777663000E-04 1.30071806553000E-04 
1.32295202556000E-04 1.34556604410000E-04 1.36856661774000E-04 1.39196035408000E-04 
1.41575397369000E-04 1.43995431203000E-04 1.46456832137000E-04 1.48960307285000E-04 
1.51506575847000E-04 1.54096369317000E-04 1.56730431691000E-04 1.59409519686000E-04 
1.62134402951000E-04 1.64905864292000E-04 1.67724699898000E-04 1.70591719564000E-04 
1.73507746929000E-04 1.76473619713000E-04 1.79490189953000E-04 1.82558324252000E-04 
1.85678904024000E-04 1.88852825752000E-04 1.92081001243000E-04 1.95364357888000E-04 
1.98703838933000E-04 2.02100403746000E-04 2.05555028094000E-04 2.09068704424000E-04 
2.12642442147000E-04 2.16277267929000E-04 2.19974225984000E-04 2.23734378379000E-04 
2.27558805330000E-04 2.31448605523000E-04 2.35404896422000E-04 2.39428814592000E-04 
2.43521516027000E-04 2.47684176482000E-04 2.51917991807000E-04 2.56224178297000E-04 
2.60603973035000E-04 2.65058634252000E-04 2.69589441685000E-04 2.74197696948000E-04 
2.78884723903000E-04 2.83651869043000E-04 2.88500501876000E-04 2.93432015320000E-04 
2.98447826104000E-04 3.03549375174000E-04 3.08738128105000E-04 3.14015575526000E-04 
3.19383233545000E-04 3.24842644187000E-04 3.30395375834000E-04 3.36043023680000E-04 
3.41787210184000E-04 3.47629585539000E-04 3.53571828147000E-04 3.59615645099000E-04 
3.65762772668000E-04 3.72014976803000E-04 3.78374053643000E-04 3.84841830026000E-04 
3.91420164019000E-04 3.98110945452000E-04 4.04916096456000E-04 4.11837572018000E-04 
4.18877360546000E-04 4.26037484433000E-04 4.33320000646000E-04 4.40727001310000E-04 
4.48260614312000E-04 4.55923003916000E-04 4.63716371375000E-04 4.71642955575000E-04 
4.79705033669000E-04 4.87904921737000E-04 4.96244975447000E-04 5.04727590736000E-04 
5.13355204495000E-04 5.22130295271000E-04 5.31055383976000E-04 5.40133034617000E-04 
5.49365855027000E-04 5.58756497616000E-04 5.68307660135000E-04 5.78022086447000E-04 
5.87902567319000E-04 5.97951941223000E-04 6.08173095148000E-04 6.18568965435000E-04 
6.29142538616000E-04 6.39896852274000E-04 6.50834995915000E-04 6.61960111856000E-04 
6.73275396127000E-04 6.84784099392000E-04 6.96489527877000E-04 7.08395044326000E-04 
7.20504068963000E-04 7.32820080477000E-04 7.45346617019000E-04 7.58087277221000E-04 