<UPF version="2.0.1">
  <PP_INFO>
Generated using Vanderbilt code, version   7  3  6
Author: kfg        Generation date:   31    3   15
Automatically converted from original USPP format to UPF.v1.

Futher converted to UPF.v2 format.
Convert Q_IJ to Q_IJL use the same routine as 'upflib/upf_to_internal.f90' of QE.
The conversion is done by using PseudoPotentialIO.jl package.
Converted by: JYU on 2024-04-30

1        The Pseudo was generated with a Scalar-Relativistic Calculation
2.40000000000E+00    Local Potential cutoff radius
nl pn  l   occ               Rcut            Rcut US             E pseu
4D  4  2 10.00      0.00000000000      1.65000000000     -2.29154940400
5S  5  0  1.50      0.00000000000      1.80000000000     -1.41182505300
5P  5  1  0.00      0.00000000000      2.00000000000     -0.89844528500
</PP_INFO>
  <PP_HEADER element="In" pseudo_type="US" relativistic="scalar" is_ultrasoft="T" is_paw="F" is_coulomb="F" has_so="F" has_wfc="F" has_gipaw="F" core_correction="T" functional="PBE" z_valence="13.0" total_psenergy="-132.282673316" wfc_cutoff="0.0" rho_cutoff="0.0" l_max="2" mesh_size="889" number_of_wfc="3" number_of_proj="6"/>
  <PP_MESH>
    <PP_R>
0.00000000000000E+00 1.16776553801000E-09 2.36509320137000E-09 3.59273135882000E-09 
4.85144732420000E-09 6.14202783594000E-09 7.46527954888000E-09 8.82202953842000E-09 
1.02131258175000E-08 1.16394378665000E-08 1.31018571769000E-08 1.46012978085000E-08 
1.61386969603000E-08 1.77150155570000E-08 1.93312388489000E-08 2.09883770283000E-08 
2.26874658604000E-08 2.44295673310000E-08 2.62157703104000E-08 2.80471912335000E-08 
2.99249747979000E-08 3.18502946796000E-08 3.38243542662000E-08 3.58483874091000E-08 
3.79236591950000E-08 4.00514667363000E-08 4.22331399819000E-08 4.44700425487000E-08 
4.67635725735000E-08 4.91151635874000E-08 5.15262854112000E-08 5.39984450746000E-08 
5.65331877578000E-08 5.91320977575000E-08 6.17967994771000E-08 6.45289584419000E-08 
6.73302823402000E-08 7.02025220906000E-08 7.31474729364000E-08 7.61669755679000E-08 
7.92629172724000E-08 8.24372331143000E-08 8.56919071443000E-08 8.90289736396000E-08 
9.24505183755000E-08 9.59586799287000E-08 9.95556510145000E-08 1.03243679857000E-07 
1.07025071594000E-07 1.10902189718000E-07 1.14877457555000E-07 1.18953359777000E-07 
1.23132443955000E-07 1.27417322152000E-07 1.31810672557000E-07 1.36315241157000E-07 
1.40933843454000E-07 1.45669366225000E-07 1.50524769326000E-07 1.55503087542000E-07 
1.60607432483000E-07 1.65840994531000E-07 1.71207044834000E-07 1.76708937346000E-07 
1.82350110931000E-07 1.88134091505000E-07 1.94064494244000E-07 2.00145025843000E-07 
2.06379486833000E-07 2.12771773954000E-07 2.19325882594000E-07 2.26045909284000E-07 
2.32936054259000E-07 2.40000624085000E-07 2.47244034348000E-07 2.54670812414000E-07 
2.62285600263000E-07 2.70093157383000E-07 2.78098363753000E-07 2.86306222887000E-07 
2.94721864965000E-07 3.03350550035000E-07 3.12197671309000E-07 3.21268758523000E-07 
3.30569481404000E-07 3.40105653206000E-07 3.49883234345000E-07 3.59908336130000E-07 
3.70187224575000E-07 3.80726324320000E-07 3.91532222645000E-07 4.02611673589000E-07 
4.13971602168000E-07 4.25619108709000E-07 4.37561473281000E-07 4.49806160252000E-07 
4.62360822949000E-07 4.75233308446000E-07 4.88431662465000E-07 5.01964134406000E-07 
5.15839182505000E-07 5.30065479120000E-07 5.44651916148000E-07 5.59607610587000E-07 
5.74941910233000E-07 5.90664399523000E-07 6.06784905525000E-07 6.23313504078000E-07 
6.40260526097000E-07 6.57636564020000E-07 6.75452478437000E-07 6.93719404876000E-07 
7.12448760758000E-07 7.31652252542000E-07 7.51341883035000E-07 7.71529958897000E-07 
7.92229098333000E-07 8.13452238978000E-07 8.35212645987000E-07 8.57523920322000E-07 
8.80400007255000E-07 9.03855205087000E-07 9.27904174078000E-07 9.52561945618000E-07 
9.77843931616000E-07 1.00376593414000E-06 1.03034415528000E-06 1.05759520729000E-06 
1.08553612296000E-06 1.11418436629000E-06 1.14355784334000E-06 1.17367491351000E-06 
1.20455440094000E-06 1.23621560632000E-06 1.26867831893000E-06 1.30196282901000E-06 
1.33608994049000E-06 1.37108098390000E-06 1.40695782979000E-06 1.44374290237000E-06 
1.48145919348000E-06 1.52013027706000E-06 1.55978032377000E-06 1.60043411620000E-06 
1.64211706428000E-06 1.68485522121000E-06 1.72867529974000E-06 1.77360468884000E-06 
1.81967147084000E-06 1.86690443898000E-06 1.91533311540000E-06 1.96498776959000E-06 
2.01589943735000E-06 2.06809994011000E-06 2.12162190489000E-06 2.17649878465000E-06 
2.23276487925000E-06 2.29045535681000E-06 2.34960627576000E-06 2.41025460735000E-06 
2.47243825877000E-06 2.53619609682000E-06 2.60156797222000E-06 2.66859474453000E-06 
2.73731830765000E-06 2.80778161606000E-06 2.88002871162000E-06 2.95410475111000E-06 
3.03005603446000E-06 3.10793003371000E-06 3.18777542263000E-06 3.26964210719000E-06 
3.35358125675000E-06 3.43964533599000E-06 3.52788813777000E-06 3.61836481671000E-06 
3.71113192369000E-06 3.80624744115000E-06 3.90377081941000E-06 4.00376301374000E-06 
4.10628652252000E-06 4.21140542629000E-06 4.31918542777000E-06 4.42969389298000E-06 
4.54299989330000E-06 4.65917424868000E-06 4.77828957187000E-06 4.90042031382000E-06 
5.02564281022000E-06 5.15403532922000E-06 5.28567812030000E-06 5.42065346451000E-06 
5.55904572582000E-06 5.70094140391000E-06 5.84642918819000E-06 5.99560001326000E-06 
6.14854711575000E-06 6.30536609258000E-06 6.46615496070000E-06 6.63101421840000E-06 
6.80004690807000E-06 6.97335868066000E-06 7.15105786166000E-06 7.33325551884000E-06 
7.52006553168000E-06 7.71160466250000E-06 7.90799262951000E-06 8.10935218157000E-06 
8.31580917496000E-06 8.52749265202000E-06 8.74453492181000E-06 8.96707164282000E-06 
9.19524190775000E-06 9.42918833044000E-06 9.66905713501000E-06 9.91499824727000E-06 
1.01671653884000E-05 1.04257161712000E-05 1.06908121981000E-05 1.09626191630000E-05 
1.12413069539000E-05 1.15270497598000E-05 1.18200261793000E-05 1.21204193322000E-05 
1.24284169739000E-05 1.27442116131000E-05 1.30680006316000E-05 1.33999864081000E-05 
1.37403764446000E-05 1.40893834959000E-05 1.44472257028000E-05 1.48141267282000E-05 
1.51903158973000E-05 1.55760283406000E-05 1.59715051409000E-05 1.63769934840000E-05 
1.67927468134000E-05 1.72190249885000E-05 1.76560944469000E-05 1.81042283714000E-05 
1.85637068602000E-05 1.90348171022000E-05 1.95178535569000E-05 2.00131181376000E-05 
2.05209204008000E-05 2.10415777396000E-05 2.15754155816000E-05 2.21227675930000E-05 
2.26839758865000E-05 2.32593912356000E-05 2.38493732936000E-05 2.44542908185000E-05 
2.50745219034000E-05 2.57104542130000E-05 2.63624852257000E-05 2.70310224820000E-05 
2.77164838396000E-05 2.84192977341000E-05 2.91399034470000E-05 2.98787513803000E-05 
3.06363033382000E-05 3.14130328151000E-05 3.22094252924000E-05 3.30259785413000E-05 
3.38632029340000E-05 3.47216217632000E-05 3.56017715685000E-05 3.65042024721000E-05 
3.74294785229000E-05 3.83781780484000E-05 3.93508940167000E-05 4.03482344071000E-05 
4.13708225896000E-05 4.24192977152000E-05 4.34943151149000E-05 4.45965467097000E-05 
4.57266814302000E-05 4.68854256473000E-05 4.80735036139000E-05 4.92916579175000E-05 
5.05406499441000E-05 5.18212603543000E-05 5.31342895715000E-05 5.44805582815000E-05 
5.58609079462000E-05 5.72762013289000E-05 5.87273230343000E-05 6.02151800605000E-05 
6.17407023667000E-05 6.33048434539000E-05 6.49085809613000E-05 6.65529172769000E-05 
6.82388801646000E-05 6.99675234059000E-05 7.17399274593000E-05 7.35572001349000E-05 
7.54204772873000E-05 7.73309235253000E-05 7.92897329402000E-05 8.12981298515000E-05 
8.33573695726000E-05 8.54687391955000E-05 8.76335583948000E-05 8.98531802531000E-05 
9.21289921062000E-05 9.44624164107000E-05 9.68549116327000E-05 9.93079731596000E-05 
1.01823134235000E-04 1.04401966916000E-04 1.07046083057000E-04 1.09757135316000E-04 
1.12536818191000E-04 1.15386869072000E-04 1.18309069335000E-04 1.21305245450000E-04 
1.24377270125000E-04 1.27527063474000E-04 1.30756594221000E-04 1.34067880929000E-04 
1.37462993259000E-04 1.40944053266000E-04 1.44513236727000E-04 1.48172774498000E-04 
1.51924953909000E-04 1.55772120193000E-04 1.59716677955000E-04 1.63761092673000E-04 
1.67907892237000E-04 1.72159668532000E-04 1.76519079055000E-04 1.80988848582000E-04 
1.85571770863000E-04 1.90270710374000E-04 1.95088604105000E-04 2.00028463396000E-04 
2.05093375821000E-04 2.10286507114000E-04 2.15611103152000E-04 2.21070491980000E-04 
2.26668085895000E-04 2.32407383574000E-04 2.38291972265000E-04 2.44325530029000E-04 
2.50511828034000E-04 2.56854732919000E-04 2.63358209206000E-04 2.70026321778000E-04 
2.76863238424000E-04 2.83873232439000E-04 2.91060685298000E-04 2.98430089392000E-04 
3.05986050838000E-04 3.13733292359000E-04 3.21676656234000E-04 3.29821107322000E-04 
3.38171736170000E-04 3.46733762195000E-04 3.55512536941000E-04 3.64513547427000E-04 
3.73742419578000E-04 3.83204921740000E-04 3.92906968285000E-04 4.02854623308000E-04 
4.13054104416000E-04 4.23511786618000E-04 4.34234206306000E-04 4.45228065340000E-04 
4.56500235240000E-04 4.68057761480000E-04 4.79907867890000E-04 4.92057961172000E-04 
5.04515635529000E-04 5.17288677415000E-04 5.30385070395000E-04 5.43813000142000E-04 
5.57580859549000E-04 5.71697253976000E-04 5.86171006629000E-04 6.01011164076000E-04 
6.16227001896000E-04 6.31828030485000E-04 6.47824000993000E-04 6.64224911422000E-04 
6.81041012876000E-04 6.98282815964000E-04 7.15961097376000E-04 7.34086906613000E-04 
7.52671572895000E-04 7.71726712243000E-04 7.91264234741000E-04 8.11296351976000E-04 
8.31835584673000E-04 8.52894770521000E-04 8.74487072197000E-04 8.96625985592000E-04 
9.19325348248000E-04 9.42599348006000E-04 9.66462531872000E-04 9.90929815114000E-04 
1.01601649058000E-03 1.04173823826000E-03 1.06811113508000E-03 1.09515166497000E-03 
1.12287672912000E-03 1.15130365662000E-03 1.18045021521000E-03 1.21033462245000E-03 
1.24097555706000E-03 1.27239217062000E-03 1.30460409954000E-03 1.33763147732000E-03 
1.37149494715000E-03 1.40621567480000E-03 1.44181536186000E-03 1.47831625928000E-03 
1.51574118133000E-03 1.55411351978000E-03 1.59345725861000E-03 1.63379698892000E-03 
1.67515792438000E-03 1.71756591690000E-03 1.76104747286000E-03 1.80562976965000E-03 
1.85134067265000E-03 1.89820875268000E-03 1.94626330380000E-03 1.99553436167000E-03 
2.04605272231000E-03 2.09784996134000E-03 2.15095845372000E-03 2.20541139399000E-03 
2.26124281700000E-03 2.31848761921000E-03 2.37718158049000E-03 2.43736138648000E-03 
2.49906465150000E-03 2.56232994212000E-03 2.62719680119000E-03 2.69370577262000E-03 
2.76189842668000E-03 2.83181738599000E-03 2.90350635219000E-03 2.97701013320000E-03 
3.05237467129000E-03 3.12964707175000E-03 3.20887563233000E-03 3.29010987348000E-03 
3.37340056923000E-03 3.45879977898000E-03 3.54636088002000E-03 3.63613860089000E-03 
3.72818905558000E-03 3.82256977862000E-03 3.91933976105000E-03 4.01855948724000E-03 
4.12029097276000E-03 4.22459780310000E-03 4.33154517342000E-03 4.44119992930000E-03 
4.55363060855000E-03 4.66890748400000E-03 4.78710260744000E-03 4.90828985467000E-03 
5.03254497168000E-03 5.15994562195000E-03 5.29057143503000E-03 5.42450405632000E-03 
5.56182719805000E-03 5.70262669167000E-03 5.84699054144000E-03 5.99500897947000E-03 
6.14677452210000E-03 6.30238202773000E-03 6.46192875612000E-03 6.62551442916000E-03 
6.79324129324000E-03 6.96521418309000E-03 7.14154058738000E-03 7.32233071585000E-03 
7.50769756820000E-03 7.69775700477000E-03 7.89262781888000E-03 8.09243181113000E-03 
8.29729386553000E-03 8.50734202753000E-03 8.72270758407000E-03 8.94352514562000E-03 
9.16993273036000E-03 9.40207185040000E-03 9.64008760024000E-03 9.88412874747000E-03 
1.01343478258000E-02 1.03909012302000E-02 1.06539493149000E-02 1.09236564937000E-02 
1.12001913421000E-02 1.14837267036000E-02 1.17744397970000E-02 1.20725123273000E-02 
1.23781305997000E-02 1.26914856354000E-02 1.30127732917000E-02 1.33421943837000E-02 
1.36799548103000E-02 1.40262656829000E-02 1.43813434569000E-02 1.47454100676000E-02 
1.51186930684000E-02 1.55014257734000E-02 1.58938474029000E-02 1.62962032333000E-02 
1.67087447500000E-02 1.71317298049000E-02 1.75654227775000E-02 1.80100947399000E-02 
1.84660236267000E-02 1.89334944081000E-02 1.94127992688000E-02 1.99042377898000E-02 
2.04081171361000E-02 2.09247522489000E-02 2.14544660418000E-02 2.19975896032000E-02 
2.25544624030000E-02 2.31254325048000E-02 2.37108567837000E-02 2.43111011486000E-02 
2.49265407721000E-02 2.55575603237000E-02 2.62045542114000E-02 2.68679268273000E-02 
2.75480928010000E-02 2.82454772582000E-02 2.89605160870000E-02 2.96936562100000E-02 
3.04453558635000E-02 3.12160848844000E-02 3.20063250033000E-02 3.28165701460000E-02 
3.36473267423000E-02 3.44991140418000E-02 3.53724644396000E-02 3.62679238078000E-02 
3.71860518380000E-02 3.81274223899000E-02 3.90926238507000E-02 4.00822595029000E-02 
4.10969479008000E-02 4.21373232579000E-02 4.32040358425000E-02 4.42977523848000E-02 
4.54191564931000E-02 4.65689490816000E-02 4.77478488081000E-02 4.89565925232000E-02 
5.01959357312000E-02 5.14666530618000E-02 5.27695387548000E-02 5.41054071562000E-02 
5.54750932271000E-02 5.68794530660000E-02 5.83193644435000E-02 5.97957273511000E-02 
6.13094645636000E-02 6.28615222161000E-02 6.44528703951000E-02 6.60845037451000E-02 
6.77574420899000E-02 6.94727310706000E-02 7.12314427986000E-02 7.30346765260000E-02 
7.48835593324000E-02 7.67792468300000E-02 7.87229238851000E-02 8.07158053590000E-02 
8.27591368677000E-02 8.48541955597000E-02 8.70022909151000E-02 8.92047655633000E-02 
9.14629961226000E-02 9.37783940608000E-02 9.61524065768000E-02 9.85865175057000E-02 
1.01082248246000E-01 1.03641158711000E-01 1.06264848303000E-01 1.08954956913000E-01 
1.11713165947000E-01 1.14541199375000E-01 1.17440824810000E-01 1.20413854612000E-01 
1.23462147022000E-01 1.26587607322000E-01 1.29792189026000E-01 1.33077895102000E-01 
1.36446779223000E-01 1.39900947052000E-01 1.43442557556000E-01 1.47073824357000E-01 
1.50797017114000E-01 1.54614462945000E-01 1.58528547877000E-01 1.62541718341000E-01 
1.66656482699000E-01 1.70875412812000E-01 1.75201145650000E-01 1.79636384936000E-01 
1.84183902839000E-01 1.88846541706000E-01 1.93627215837000E-01 1.98528913311000E-01 
2.03554697847000E-01 2.08707710724000E-01 2.13991172743000E-01 2.19408386240000E-01 
2.24962737149000E-01 2.30657697121000E-01 2.36496825692000E-01 2.42483772506000E-01 
2.48622279599000E-01 2.54916183740000E-01 2.61369418823000E-01 2.67986018330000E-01 
2.74770117850000E-01 2.81725957668000E-01 2.88857885409000E-01 2.96170358760000E-01 
3.03667948256000E-01 3.11355340133000E-01 3.19237339262000E-01 3.27318872150000E-01 
3.35604990016000E-01 3.44100871954000E-01 3.52811828168000E-01 3.61743303288000E-01 
3.70900879778000E-01 3.80290281420000E-01 3.89917376896000E-01 3.99788183454000E-01 
4.09908870671000E-01 4.20285764303000E-01 4.30925350249000E-01 4.41834278596000E-01 
4.53019367778000E-01 4.64487608841000E-01 4.76246169808000E-01 4.88302400164000E-01 
5.00663835444000E-01 5.13338201949000E-01 5.26333421569000E-01 5.39657616739000E-01 
5.53319115517000E-01 5.67326456782000E-01 5.81688395580000E-01 5.96413908590000E-01 
6.11512199736000E-01 6.26992705942000E-01 6.42865103029000E-01 6.59139311761000E-01 
6.75825504048000E-01 6.92934109304000E-01 7.10475820965000E-01 7.28461603170000E-01 
7.46902697619000E-01 7.65810630597000E-01 7.85197220178000E-01 8.05074583610000E-01 
8.25455144893000E-01 8.46351642541000E-01 8.67777137546000E-01 8.89745021539000E-01 
9.12269025163000E-01 9.35363226653000E-01 9.59042060638000E-01 9.83320327159000E-01 
1.00821320092000E+00 1.03373624079000E+00 1.05990539948000E+00 1.08673703358000E+00 
1.11424791373000E+00 1.14245523513000E+00 1.17137662827000E+00 1.20103016996000E+00 
1.23143439463000E+00 1.26260830592000E+00 1.29457138853000E+00 1.32734362042000E+00 
1.36094548532000E+00 1.39539798547000E+00 1.43072265482000E+00 1.46694157244000E+00 
1.50407737631000E+00 1.54215327754000E+00 1.58119307479000E+00 1.62122116922000E+00 
1.66226257969000E+00 1.70434295840000E+00 1.74748860698000E+00 1.79172649285000E+00 
1.83708426613000E+00 1.88359027690000E+00 1.93127359295000E+00 1.98016401789000E+00 
2.03029210983000E+00 2.08168920046000E+00 2.13438741463000E+00 2.18841969044000E+00 
2.24381979983000E+00 2.30062236967000E+00 2.35886290341000E+00 2.41857780327000E+00 
2.47980439303000E+00 2.54258094128000E+00 2.60694668542000E+00 2.67294185613000E+00 
2.74060770254000E+00 2.80998651801000E+00 2.88112166655000E+00 2.95405760996000E+00 
3.02883993556000E+00 3.10551538474000E+00 3.18413188216000E+00 3.26473856570000E+00 
3.34738581713000E+00 3.43212529370000E+00 3.51900996034000E+00 3.60809412278000E+00 
3.69943346153000E+00 3.79308506665000E+00 3.88910747343000E+00 3.98756069902000E+00 
4.08850627989000E+00 4.19200731029000E+00 4.29812848176000E+00 4.40693612348000E+00 
4.51849824375000E+00 4.63288457255000E+00 4.75016660505000E+00 4.87041764633000E+00 
4.99371285722000E+00 5.12012930124000E+00 5.24974599276000E+00 5.38264394646000E+00 
5.51890622787000E+00 5.65861800536000E+00 5.80186660334000E+00 5.94874155684000E+00 
6.09933466748000E+00 6.25374006088000E+00 6.41205424542000E+00 6.57437617262000E+00 
6.74080729897000E+00 6.91145164934000E+00 7.08641588201000E+00 7.26580935532000E+00 
7.44974419602000E+00 7.63833536939000E+00 7.83170075104000E+00 8.02996120063000E+00 
8.23324063740000E+00 8.44166611761000E+00 8.65536791397000E+00 8.87447959706000E+00 
9.09913811882000E+00 9.32948389813000E+00 9.56566090861000E+00 9.80781676858000E+00 
1.00561028333000E+01 1.03106742897000E+01 1.05716902532000E+01 1.08393138673000E+01 
1.11137124054000E+01 1.13950573756000E+01 1.16835246276000E+01 1.19792944629000E+01 
1.22825517472000E+01 1.25934860262000E+01 1.29122916439000E+01 1.32391678643000E+01 
1.35743189956000E+01 1.39179545182000E+01 1.42702892154000E+01 1.46315433080000E+01 
1.50019425915000E+01 1.53817185774000E+01 1.57711086383000E+01 1.61703561554000E+01 
1.65797106716000E+01 1.69994280467000E+01 1.74297706177000E+01 1.78710073627000E+01 
1.83234140692000E+01 1.87872735059000E+01 1.92628756002000E+01 1.97505176189000E+01 
2.02505043540000E+01 2.07631483135000E+01 2.12887699167000E+01 2.18276976942000E+01 
2.23802684932000E+01 2.29468276887000E+01 2.35277293984000E+01 2.41233367050000E+01 
2.47340218823000E+01 2.53601666285000E+01 2.60021623043000E+01 2.66604101781000E+01 
2.73353216762000E+01 2.80273186402000E+01 2.87368335907000E+01 2.94643099977000E+01 
3.02102025576000E+01 3.09749774776000E+01 3.17591127669000E+01 3.25630985355000E+01 
3.33874373007000E+01 3.42326443012000E+01 3.50992478187000E+01 3.59877895087000E+01 
3.68988247387000E+01 3.78329229353000E+01 3.87906679404000E+01 3.97726583757000E+01 
4.07795080172000E+01 4.18118461788000E+01 4.28703181053000E+01 4.39555853762000E+01 
4.50683263189000E+01 4.62092364327000E+01 4.73790288235000E+01 4.85784346496000E+01 
4.98082035789000E+01 5.10691042567000E+01 5.23619247872000E+01 5.36874732253000E+01 
5.50465780818000E+01 5.64400888416000E+01 5.78688764942000E+01 5.93338340784000E+01 
6.08358772404000E+01 6.23759448062000E+01 6.39549993679000E+01 6.55740278862000E+01 
6.72340423066000E+01 6.89360801921000E+01 7.06812053718000E+01 7.24705086058000E+01 
7.43051082668000E+01 7.61861510393000E+01 7.81148126363000E+01 8.00922985341000E+01 
8.21198447258000E+01 8.41987184936000E+01 8.63302192014000E+01 8.85156791066000E+01 
9.07564641926000E+01 9.30539750232000E+01 9.54096476174000E+01 9.78249543472000E+01 
1.00301404858000E+02 1.02840547012000E+02 1.05443967855000E+02 1.08113294611000E+02 
1.10850195696000E+02 1.13656381761000E+02 1.16533606765000E+02 1.19483669067000E+02 
1.22508412551000E+02 1.25609727781000E+02 1.28789553180000E+02 1.32049876242000E+02 
1.35392734776000E+02 1.38820218176000E+02 1.42334468732000E+02 1.45937682963000E+02 
1.49632112998000E+02 1.53420067974000E+02 1.57303915487000E+02 1.61286083067000E+02 
1.65369059700000E+02 1.69555397379000E+02 1.73847712700000E+02 1.78248688501000E+02 
1.82761075535000E+02 1.87387694191000E+02 1.92131436255000E+02 1.96995266722000E+02 
2.01982225643000E+02 
</PP_R>
    <PP_RAB>
1.15322928928000E-09 1.18242342773000E-09 1.21235661931000E-09 1.24304757325000E-09 
1.27451547238000E-09 1.30677998517000E-09 1.33986127800000E-09 1.37378002774000E-09 
1.40855743471000E-09 1.44421523594000E-09 1.48077571870000E-09 1.51826173449000E-09 
1.55669671328000E-09 1.59610467820000E-09 1.63651026050000E-09 1.67793871498000E-09 
1.72041593579000E-09 1.76396847255000E-09 1.80862354704000E-09 1.85440907011000E-09 
1.90135365922000E-09 1.94948665627000E-09 1.99883814593000E-09 2.04943897450000E-09 
2.10132076915000E-09 2.15451595768000E-09 2.20905778882000E-09 2.26498035299000E-09 
2.32231860361000E-09 2.38110837896000E-09 2.44138642456000E-09 2.50319041614000E-09 
2.56655898322000E-09 2.63153173321000E-09 2.69814927620000E-09 2.76645325032000E-09 
2.83648634778000E-09 2.90829234154000E-09 2.98191611269000E-09 3.05740367847000E-09 
3.13480222109000E-09 3.21416011713000E-09 3.29552696788000E-09 3.37895363027000E-09 
3.46449224866000E-09 3.55219628749000E-09 3.64212056464000E-09 3.73432128570000E-09 
3.82885607912000E-09 3.92578403223000E-09 4.02516572816000E-09 4.12706328370000E-09 
4.23154038814000E-09 4.33866234307000E-09 4.44849610320000E-09 4.56111031821000E-09 
4.67657537564000E-09 4.79496344491000E-09 4.91634852243000E-09 5.04080647782000E-09 
5.16841510134000E-09 5.29925415255000E-09 5.43340541011000E-09 5.57095272293000E-09 
5.71198206255000E-09 5.85658157689000E-09 6.00484164537000E-09 6.15685493536000E-09 
6.31271646010000E-09 6.47252363812000E-09 6.63637635412000E-09 6.80437702137000E-09 
6.97663064576000E-09 7.15324489141000E-09 7.33433014797000E-09 7.51999959964000E-09 
7.71036929584000E-09 7.90555822386000E-09 8.10568838311000E-09 8.31088486146000E-09 
8.52127591339000E-09 8.73699304016000E-09 8.95817107199000E-09 9.18494825236000E-09 
9.41746632438000E-09 9.65587061941000E-09 9.90031014791000E-09 1.01509376925000E-08 
1.04079099037000E-08 1.06713873973000E-08 1.09415348554000E-08 1.12185211290000E-08 
1.15025193435000E-08 1.17937070070000E-08 1.20922661213000E-08 1.23983832956000E-08 
1.27122498630000E-08 1.30340620004000E-08 1.33640208509000E-08 1.37023326494000E-08 
1.40492088519000E-08 1.44048662673000E-08 1.47695271930000E-08 1.51434195539000E-08 
1.55267770451000E-08 1.59198392774000E-08 1.63228519274000E-08 1.67360668912000E-08 
1.71597424417000E-08 1.75941433898000E-08 1.80395412502000E-08 1.84962144112000E-08 
1.89644483082000E-08 1.94445356028000E-08 1.99367763652000E-08 2.04414782617000E-08 
2.09589567476000E-08 2.14895352637000E-08 2.20335454389000E-08 2.25913272973000E-08 
2.31632294707000E-08 2.37496094164000E-08 2.43508336412000E-08 2.49672779297000E-08 
2.55993275797000E-08 2.62473776427000E-08 2.69118331712000E-08 2.75931094714000E-08 
2.82916323634000E-08 2.90078384465000E-08 2.97421753729000E-08 3.04951021271000E-08 
3.12670893129000E-08 3.20586194473000E-08 3.28701872624000E-08 3.37023000146000E-08 
3.45554778015000E-08 3.54302538868000E-08 3.63271750341000E-08 3.72468018484000E-08 
3.81897091264000E-08 3.91564862157000E-08 4.01477373836000E-08 4.11640821942000E-08 
4.22061558962000E-08 4.32746098196000E-08 4.43701117829000E-08 4.54933465103000E-08 
4.66450160603000E-08 4.78258402637000E-08 4.90365571742000E-08 5.02779235291000E-08 
5.15507152230000E-08 5.28557277920000E-08 5.41937769115000E-08 5.55656989056000E-08 
5.69723512705000E-08 5.84146132094000E-08 5.98933861832000E-08 6.14095944731000E-08 
6.29641857585000E-08 6.45581317097000E-08 6.61924285948000E-08 6.78680979025000E-08 
6.95861869806000E-08 7.13477696909000E-08 7.31539470797000E-08 7.50058480669000E-08 
7.69046301508000E-08 7.88514801319000E-08 8.08476148550000E-08 8.28942819691000E-08 
8.49927607080000E-08 8.71443626890000E-08 8.93504327335000E-08 9.16123497071000E-08 
9.39315273814000E-08 9.63094153181000E-08 9.87474997745000E-08 1.01247304633000E-07 
1.03810392352000E-07 1.06438364946000E-07 1.09132864984000E-07 1.11895576614000E-07 
1.14728226622000E-07 1.17632585506000E-07 1.20610468586000E-07 1.23663737135000E-07 
1.26794299545000E-07 1.30004112520000E-07 1.33295182297000E-07 1.36669565902000E-07 
1.40129372435000E-07 1.43676764387000E-07 1.47313958994000E-07 1.51043229621000E-07 
1.54866907183000E-07 1.58787381604000E-07 1.62807103307000E-07 1.66928584749000E-07 
1.71154401991000E-07 1.75487196306000E-07 1.79929675831000E-07 1.84484617260000E-07 
1.89154867581000E-07 1.93943345852000E-07 1.98853045027000E-07 2.03887033828000E-07 
2.09048458663000E-07 2.14340545590000E-07 2.19766602335000E-07 2.25330020360000E-07 
2.31034276983000E-07 2.36882937550000E-07 2.42879657664000E-07 2.49028185471000E-07 
2.55332364000000E-07 2.61796133569000E-07 2.68423534243000E-07 2.75218708364000E-07 
2.82185903137000E-07 2.89329473285000E-07 2.96653883772000E-07 3.04163712594000E-07 
3.11863653638000E-07 3.19758519617000E-07 3.27853245079000E-07 3.36152889493000E-07 
3.44662640405000E-07 3.53387816687000E-07 3.62333871858000E-07 3.71506397495000E-07 
3.80911126723000E-07 3.90553937805000E-07 4.00440857812000E-07 4.10578066390000E-07 
4.20971899625000E-07 4.31628854002000E-07 4.42555590463000E-07 4.53758938574000E-07 
4.65245900793000E-07 4.77023656845000E-07 4.89099568211000E-07 5.01481182729000E-07 
5.14176239310000E-07 5.27192672779000E-07 5.40538618830000E-07 5.54222419114000E-07 
5.68252626451000E-07 5.82638010178000E-07 5.97387561628000E-07 6.12510499751000E-07 
6.28016276874000E-07 6.43914584615000E-07 6.60215359932000E-07 6.76928791340000E-07 
6.94065325280000E-07 7.11635672641000E-07 7.29650815463000E-07 7.48122013797000E-07 
7.67060812744000E-07 7.86479049668000E-07 8.06388861600000E-07 8.26802692821000E-07 
8.47733302640000E-07 8.69193773369000E-07 8.91197518501000E-07 9.13758291092000E-07 
9.36890192362000E-07 9.60607680499000E-07 9.84925579708000E-07 1.00985908947000E-06 
1.03542379403000E-06 1.06163567217000E-06 1.08851110716000E-06 1.11606689703000E-06 
1.14432026504000E-06 1.17328887047000E-06 1.20299081964000E-06 1.23344467723000E-06 
1.26466947789000E-06 1.29668473815000E-06 1.32951046858000E-06 1.36316718633000E-06 
1.39767592794000E-06 1.43305826251000E-06 1.46933630515000E-06 1.50653273080000E-06 
1.54467078846000E-06 1.58377431564000E-06 1.62386775332000E-06 1.66497616121000E-06 
1.70712523340000E-06 1.75034131444000E-06 1.79465141577000E-06 1.84008323266000E-06 
1.88666516147000E-06 1.93442631742000E-06 1.98339655279000E-06 2.03360647558000E-06 
2.08508746860000E-06 2.13787170918000E-06 2.19199218916000E-06 2.24748273562000E-06 
2.30437803195000E-06 2.36271363956000E-06 2.42252602011000E-06 2.48385255828000E-06 
2.54673158516000E-06 2.61120240218000E-06 2.67730530570000E-06 2.74508161220000E-06 
2.81457368406000E-06 2.88582495610000E-06 2.95887996267000E-06 3.03378436555000E-06 
3.11058498241000E-06 3.18932981614000E-06 3.27006808482000E-06 3.35285025252000E-06 
3.43772806076000E-06 3.52475456095000E-06 3.61398414748000E-06 3.70547259174000E-06 
3.79927707700000E-06 3.89545623411000E-06 3.99407017818000E-06 4.09518054612000E-06 
4.19885053521000E-06 4.30514494258000E-06 4.41413020567000E-06 4.52587444384000E-06 
4.64044750087000E-06 4.75792098864000E-06 4.87836833191000E-06 5.00186481419000E-06 
5.12848762481000E-06 5.25831590714000E-06 5.39143080809000E-06 5.52791552879000E-06 
5.66785537665000E-06 5.81133781863000E-06 5.95845253592000E-06 6.10929148000000E-06 
6.26394893014000E-06 6.42252155226000E-06 6.58510845943000E-06 6.75181127375000E-06 
6.92273418990000E-06 7.09798404027000E-06 7.27767036173000E-06 7.46190546408000E-06 
7.65080450024000E-06 7.84448553828000E-06 8.04306963513000E-06 8.24668091233000E-06 
8.45544663355000E-06 8.66949728417000E-06 8.88896665280000E-06 9.11399191496000E-06 
9.34471371874000E-06 9.58127627280000E-06 9.82382743642000E-06 1.00725188120000E-05 
1.03275058397000E-05 1.05889478947000E-05 1.08570083869000E-05 1.11318548628000E-05 
1.14136591103000E-05 1.17025972663000E-05 1.19988499265000E-05 1.23026022586000E-05 
1.26140441175000E-05 1.29333701647000E-05 1.32607799892000E-05 1.35964782328000E-05 
1.39406747180000E-05 1.42935845787000E-05 1.46554283950000E-05 1.50264323312000E-05 
1.54068282767000E-05 1.57968539914000E-05 1.61967532541000E-05 1.66067760148000E-05 
1.70271785512000E-05 1.74582236284000E-05 1.79001806637000E-05 1.83533258946000E-05 
1.88179425517000E-05 1.92943210354000E-05 1.97827590978000E-05 2.02835620287000E-05 
2.07970428461000E-05 2.13235224923000E-05 2.18633300342000E-05 2.24168028691000E-05 
2.29842869355000E-05 2.35661369294000E-05 2.41627165261000E-05 2.47743986071000E-05 
2.54015654938000E-05 2.60446091858000E-05 2.67039316063000E-05 2.73799448534000E-05 
2.80730714574000E-05 2.87837446448000E-05 2.95124086096000E-05 3.02595187905000E-05 
3.10255421557000E-05 3.18109574947000E-05 3.26162557177000E-05 3.34419401623000E-05 
3.42885269080000E-05 3.51565450993000E-05 3.60465372757000E-05 3.69590597114000E-05 
3.78946827624000E-05 3.88539912238000E-05 3.98375846945000E-05 4.08460779524000E-05 
4.18801013387000E-05 4.29403011517000E-05 4.40273400507000E-05 4.51418974705000E-05 
4.62846700456000E-05 4.74563720463000E-05 4.86577358243000E-05 4.98895122711000E-05 
5.11524712871000E-05 5.24474022629000E-05 5.37751145724000E-05 5.51364380790000E-05 
5.65322236543000E-05 5.79633437096000E-05 5.94306927416000E-05 6.09351878912000E-05 
6.24777695168000E-05 6.40594017822000E-05 6.56810732591000E-05 6.73437975448000E-05 
6.90486138962000E-05 7.07965878791000E-05 7.25888120339000E-05 7.44264065593000E-05 
7.63105200115000E-05 7.82423300229000E-05 8.02230440376000E-05 8.22539000662000E-05 
8.43361674600000E-05 8.64711477038000E-05 8.86601752298000E-05 9.09046182515000E-05 
9.32058796187000E-05 9.55653976949000E-05 9.79846472555000E-05 1.00465140410000E-04 
1.03008427548000E-04 1.05616098307000E-04 1.08289782565000E-04 1.11031151462000E-04 
1.13841918443000E-04 1.16723840329000E-04 1.19678718415000E-04 1.22708399596000E-04 