<UPF version="2.0.1">
  <PP_INFO>
Generated using Vanderbilt code, version   7  3  6
Author: kfg        Generation date:    3    2 2014
Automatically converted from original USPP format to UPF.v1.

Futher converted to UPF.v2 format.
Convert Q_IJ to Q_IJL use the same routine as 'upflib/upf_to_internal.f90' of QE.
The conversion is done by using PseudoPotentialIO.jl package.
Converted by: JYU on 2024-04-30

1        The Pseudo was generated with a Scalar-Relativistic Calculation
2.35417311679E+00    Local Potential cutoff radius
nl pn  l   occ               Rcut            Rcut US             E pseu
5P  5  1  6.00      0.00000000000      1.62000000000     -4.03918053000
5D  5  2  8.50      0.00000000000      1.65000000000     -0.61284397200
6S  6  0  0.00      0.00000000000      2.55000000000     -0.62504780100
6P  6  1  0.00      0.00000000000      1.62000000000     -0.24819118800
</PP_INFO>
  <PP_HEADER element="Ir" pseudo_type="US" relativistic="scalar" is_ultrasoft="T" is_paw="F" is_coulomb="F" has_so="F" has_wfc="F" has_gipaw="F" core_correction="T" functional="PBE" z_valence="15.0" total_psenergy="-180.873787199" wfc_cutoff="0.0" rho_cutoff="0.0" l_max="2" mesh_size="983" number_of_wfc="4" number_of_proj="7"/>
  <PP_MESH>
    <PP_R>
0.00000000000000E+00 1.99031033589000E-07 4.01407048486000E-07 6.07184261552000E-07 
8.16419834446000E-07 1.02917188951000E-06 1.24549952590000E-06 1.46546283601000E-06 
1.68912292219000E-06 1.91654191368000E-06 2.14778298387000E-06 2.38291036788000E-06 
2.62198938039000E-06 2.86508643378000E-06 3.11226905656000E-06 3.36360591216000E-06 
3.61916681800000E-06 3.87902276486000E-06 4.14324593661000E-06 4.41190973028000E-06 
4.68508877643000E-06 4.96285895989000E-06 5.24529744082000E-06 5.53248267617000E-06 
5.82449444147000E-06 6.12141385298000E-06 6.42332339021000E-06 6.73030691887000E-06 
7.04244971414000E-06 7.35983848436000E-06 7.68256139510000E-06 8.01070809371000E-06 
8.34436973415000E-06 8.68363900236000E-06 9.02861014198000E-06 9.37937898054000E-06 
9.73604295610000E-06 1.00987011443000E-05 1.04674542858000E-05 1.08424048144000E-05 
1.12236568855000E-05 1.16113164048000E-05 1.20054910581000E-05 1.24062903409000E-05 
1.28138255888000E-05 1.32282100087000E-05 1.36495587102000E-05 1.40779887371000E-05 
1.45136191005000E-05 1.49565708118000E-05 1.54069669159000E-05 1.58649325258000E-05 
1.63305948569000E-05 1.68040832631000E-05 1.72855292718000E-05 1.77750666213000E-05 
1.82728312971000E-05 1.87789615706000E-05 1.92935980366000E-05 1.98168836532000E-05 
2.03489637807000E-05 2.08899862226000E-05 2.14401012664000E-05 2.19994617254000E-05 
2.25682229810000E-05 2.31465430263000E-05 2.37345825093000E-05 2.43325047781000E-05 
2.49404759261000E-05 2.55586648381000E-05 2.61872432372000E-05 2.68263857325000E-05 
2.74762698678000E-05 2.81370761706000E-05 2.88089882024000E-05 2.94921926098000E-05 
3.01868791762000E-05 3.08932408746000E-05 3.16114739210000E-05 3.23417778293000E-05 
3.30843554664000E-05 3.38394131085000E-05 3.46071604989000E-05 3.53878109056000E-05 
3.61815811809000E-05 3.69886918217000E-05 3.78093670306000E-05 3.86438347782000E-05 
3.94923268665000E-05 4.03550789931000E-05 4.12323308170000E-05 4.21243260249000E-05 
4.30313123990000E-05 4.39535418857000E-05 4.48912706659000E-05 4.58447592257000E-05 
4.68142724293000E-05 4.78000795922000E-05 4.88024545559000E-05 4.98216757644000E-05 
5.08580263413000E-05 5.19117941683000E-05 5.29832719657000E-05 5.40727573728000E-05 
5.51805530317000E-05 5.63069666705000E-05 5.74523111890000E-05 5.86169047459000E-05 
5.98010708468000E-05 6.10051384345000E-05 6.22294419799000E-05 6.34743215752000E-05 
6.47401230282000E-05 6.60271979586000E-05 6.73359038956000E-05 6.86666043769000E-05 
7.00196690502000E-05 7.13954737753000E-05 7.27944007293000E-05 7.42168385118000E-05 
7.56631822536000E-05 7.71338337263000E-05 7.86292014534000E-05 8.01497008246000E-05 
8.16957542107000E-05 8.32677910807000E-05 8.48662481217000E-05 8.64915693599000E-05 
8.81442062837000E-05 8.98246179698000E-05 9.15332712098000E-05 9.32706406406000E-05 
9.50372088762000E-05 9.68334666411000E-05 9.86599129075000E-05 1.00517055033000E-04 
1.02405408903000E-04 1.04325499072000E-04 1.06277858911000E-04 1.08263030754000E-04 
1.10281566051000E-04 1.12334025519000E-04 1.14420979299000E-04 1.16543007114000E-04 
1.18700698430000E-04 1.20894652618000E-04 1.23125479125000E-04 1.25393797640000E-04 
1.27700238265000E-04 1.30045441694000E-04 1.32430059386000E-04 1.34854753750000E-04 
1.37320198330000E-04 1.39827077985000E-04 1.42376089088000E-04 1.44967939714000E-04 
1.47603349838000E-04 1.50283051535000E-04 1.53007789184000E-04 1.55778319674000E-04 
1.58595412615000E-04 1.61459850551000E-04 1.64372429177000E-04 1.67333957562000E-04 
1.70345258371000E-04 1.73407168097000E-04 1.76520537289000E-04 1.79686230792000E-04 
1.82905127986000E-04 1.86178123030000E-04 1.89506125110000E-04 1.92890058692000E-04 
1.96330863780000E-04 1.99829496176000E-04 2.03386927743000E-04 2.07004146680000E-04 
2.10682157794000E-04 2.14421982778000E-04 2.18224660497000E-04 2.22091247273000E-04 
2.26022817184000E-04 2.30020462358000E-04 2.34085293278000E-04 2.38218439089000E-04 
2.42421047914000E-04 2.46694287171000E-04 2.51039343899000E-04 2.55457425086000E-04 
2.59949758006000E-04 2.64517590556000E-04 2.69162191610000E-04 2.73884851363000E-04 
2.78686881696000E-04 2.83569616538000E-04 2.88534412235000E-04 2.93582647928000E-04 
2.98715725938000E-04 3.03935072154000E-04 3.09242136426000E-04 3.14638392973000E-04 
3.20125340792000E-04 3.25704504068000E-04 3.31377432605000E-04 3.37145702253000E-04 
3.43010915347000E-04 3.48974701150000E-04 3.55038716308000E-04 3.61204645308000E-04 
3.67474200947000E-04 3.73849124810000E-04 3.80331187750000E-04 3.86922190381000E-04 
3.93623963580000E-04 4.00438368994000E-04 4.07367299556000E-04 4.14412680014000E-04 
4.21576467465000E-04 4.28860651893000E-04 4.36267256732000E-04 4.43798339419000E-04 
4.51455991970000E-04 4.59242341560000E-04 4.67159551113000E-04 4.75209819905000E-04 
4.83395384175000E-04 4.91718517742000E-04 5.00181532642000E-04 5.08786779767000E-04 
5.17536649517000E-04 5.26433572469000E-04 5.35480020048000E-04 5.44678505214000E-04 
5.54031583161000E-04 5.63541852025000E-04 5.73211953610000E-04 5.83044574118000E-04 
5.93042444894000E-04 6.03208343189000E-04 6.13545092930000E-04 6.24055565503000E-04 
6.34742680549000E-04 6.45609406783000E-04 6.56658762807000E-04 6.67893817959000E-04 
6.79317693161000E-04 6.90933561783000E-04 7.02744650531000E-04 7.14754240338000E-04 
7.26965667280000E-04 7.39382323497000E-04 7.52007658141000E-04 7.64845178331000E-04 
7.77898450125000E-04 7.91171099519000E-04 8.04666813443000E-04 8.18389340794000E-04 
8.32342493474000E-04 8.46530147447000E-04 8.60956243821000E-04 8.75624789936000E-04 
8.90539860484000E-04 9.05705598635000E-04 9.21126217192000E-04 9.36805999759000E-04 
9.52749301932000E-04 9.68960552509000E-04 9.85444254720000E-04 1.00220498748000E-03 
1.01924740664000E-03 1.03657624634000E-03 1.05419632024000E-03 1.07211252292000E-03 
1.09032983123000E-03 1.10885330563000E-03 1.12768809167000E-03 1.14683942135000E-03 
1.16631261460000E-03 1.18611308076000E-03 1.20624632011000E-03 1.22671792532000E-03 
1.24753358310000E-03 1.26869907570000E-03 1.29022028256000E-03 1.31210318194000E-03 
1.33435385255000E-03 1.35697847528000E-03 1.37998333489000E-03 1.40337482178000E-03 
1.42715943372000E-03 1.45134377772000E-03 1.47593457178000E-03 1.50093864686000E-03 
1.52636294868000E-03 1.55221453972000E-03 1.57850060114000E-03 1.60522843479000E-03 
1.63240546524000E-03 1.66003924185000E-03 1.68813744083000E-03 1.71670786744000E-03 
1.74575845807000E-03 1.77529728252000E-03 1.80533254622000E-03 1.83587259248000E-03 
1.86692590485000E-03 1.89850110945000E-03 1.93060697736000E-03 1.96325242711000E-03 
1.99644652706000E-03 2.03019849803000E-03 2.06451771577000E-03 2.09941371362000E-03 
2.13489618514000E-03 2.17097498680000E-03 2.20766014073000E-03 2.24496183747000E-03 
2.28289043884000E-03 2.32145648083000E-03 2.36067067646000E-03 2.40054391881000E-03 
2.44108728405000E-03 2.48231203448000E-03 2.52422962169000E-03 2.56685168972000E-03 
2.61019007830000E-03 2.65425682616000E-03 2.69906417434000E-03 2.74462456963000E-03 
2.79095066796000E-03 2.83805533801000E-03 2.88595166471000E-03 2.93465295290000E-03 
2.98417273103000E-03 3.03452475491000E-03 3.08572301154000E-03 3.13778172299000E-03 
3.19071535034000E-03 3.24453859772000E-03 3.29926641638000E-03 3.35491400884000E-03 
3.41149683312000E-03 3.46903060704000E-03 3.52753131258000E-03 3.58701520030000E-03 
3.64749879389000E-03 3.70899889474000E-03 3.77153258660000E-03 3.83511724034000E-03 
3.89977051879000E-03 3.96551038159000E-03 4.03235509025000E-03 4.10032321316000E-03 
4.16943363081000E-03 4.23970554096000E-03 4.31115846406000E-03 4.38381224859000E-03 
4.45768707662000E-03 4.53280346942000E-03 4.60918229314000E-03 4.68684476460000E-03 
4.76581245722000E-03 4.84610730697000E-03 4.92775161849000E-03 5.01076807129000E-03 
5.09517972601000E-03 5.18101003090000E-03 5.26828282825000E-03 5.35702236106000E-03 
5.44725327978000E-03 5.53900064913000E-03 5.63228995508000E-03 5.72714711193000E-03 
5.82359846950000E-03 5.92167082045000E-03 6.02139140773000E-03 6.12278793215000E-03 
6.22588856006000E-03 6.33072193118000E-03 6.43731716657000E-03 6.54570387671000E-03 
6.65591216970000E-03 6.76797265968000E-03 6.88191647528000E-03 6.99777526829000E-03 
7.11558122245000E-03 7.23536706240000E-03 7.35716606275000E-03 7.48101205734000E-03 
7.60693944863000E-03 7.73498321727000E-03 7.86517893178000E-03 7.99756275849000E-03 
8.13217147153000E-03 8.26904246307000E-03 8.40821375371000E-03 8.54972400305000E-03 
8.69361252039000E-03 8.83991927569000E-03 8.98868491066000E-03 9.13995075004000E-03 
9.29375881309000E-03 9.45015182527000E-03 9.60917323008000E-03 9.77086720116000E-03 
9.93527865453000E-03 1.01024532611000E-02 1.02724374594000E-02 1.04452784682000E-02 
1.06210243002000E-02 1.07997237746000E-02 1.09814265315000E-02 1.11661830449000E-02 
1.13540446374000E-02 1.15450634938000E-02 1.17392926762000E-02 1.19367861385000E-02 
1.21375987411000E-02 1.23417862667000E-02 1.25494054353000E-02 1.27605139202000E-02 
1.29751703641000E-02 1.31934343951000E-02 1.34153666435000E-02 1.36410287586000E-02 
1.38704834257000E-02 1.41037943838000E-02 1.43410264430000E-02 1.45822455025000E-02 
1.48275185692000E-02 1.50769137761000E-02 1.53305004013000E-02 1.55883488871000E-02 
1.58505308597000E-02 1.61171191491000E-02 1.63881878095000E-02 1.66638121392000E-02 
1.69440687026000E-02 1.72290353503000E-02 1.75187912417000E-02 1.78134168663000E-02 
1.81129940665000E-02 1.84176060601000E-02 1.87273374635000E-02 1.90422743152000E-02 
1.93625040997000E-02 1.96881157717000E-02 2.00191997811000E-02 2.03558480977000E-02 
2.06981542372000E-02 2.10462132867000E-02 2.14001219316000E-02 2.17599784821000E-02 
2.21258829007000E-02 2.24979368299000E-02 2.28762436203000E-02 2.32609083596000E-02 
2.36520379016000E-02 2.40497408959000E-02 2.44541278182000E-02 2.48653110006000E-02 
2.52834046635000E-02 2.57085249466000E-02 2.61407899416000E-02 2.65803197250000E-02 
2.70272363911000E-02 2.74816640863000E-02 2.79437290436000E-02 2.84135596171000E-02 
2.88912863185000E-02 2.93770418527000E-02 2.98709611549000E-02 3.03731814281000E-02 
3.08838421811000E-02 3.14030852674000E-02 3.19310549246000E-02 3.24678978142000E-02 
3.30137630629000E-02 3.35688023033000E-02 3.41331697165000E-02 3.47070220749000E-02 
3.52905187856000E-02 3.58838219349000E-02 3.64870963329000E-02 3.71005095597000E-02 
3.77242320119000E-02 3.83584369497000E-02 3.90033005452000E-02 3.96590019314000E-02 
4.03257232516000E-02 4.10036497107000E-02 4.16929696258000E-02 4.23938744792000E-02 
4.31065589711000E-02 4.38312210740000E-02 4.45680620876000E-02 4.53172866948000E-02 
4.60791030182000E-02 4.68537226785000E-02 4.76413608526000E-02 4.84422363342000E-02 
4.92565715937000E-02 5.00845928407000E-02 5.09265300862000E-02 5.17826172073000E-02 
5.26530920114000E-02 5.35381963027000E-02 5.44381759490000E-02 5.53532809507000E-02 
5.62837655093000E-02 5.72298880989000E-02 5.81919115373000E-02 5.91701030594000E-02 
6.01647343915000E-02 6.11760818263000E-02 6.22044263002000E-02 6.32500534712000E-02 
6.43132537978000E-02 6.53943226204000E-02 6.64935602427000E-02 6.76112720158000E-02 
6.87477684221000E-02 6.99033651626000E-02 7.10783832437000E-02 7.22731490668000E-02 
7.34879945191000E-02 7.47232570655000E-02 7.59792798423000E-02 7.72564117528000E-02 
7.85550075643000E-02 7.98754280059000E-02 8.12180398698000E-02 8.25832161122000E-02 
8.39713359575000E-02 8.53827850036000E-02 8.68179553287000E-02 8.82772456005000E-02 
8.97610611867000E-02 9.12698142678000E-02 9.28039239518000E-02 9.43638163899000E-02 
9.59499248957000E-02 9.75626900650000E-02 9.92025598987000E-02 1.00869989927000E-01 
1.02565443334000E-01 1.04289391092000E-01 1.06042312086000E-01 1.07824693249000E-01 
1.09637029698000E-01 1.11479824873000E-01 1.13353590672000E-01 1.15258847598000E-01 
1.17196124902000E-01 1.19165960728000E-01 1.21168902266000E-01 1.23205505901000E-01 
1.25276337370000E-01 1.27381971916000E-01 1.29522994453000E-01 1.31699999721000E-01 
1.33913592459000E-01 1.36164387568000E-01 1.38453010284000E-01 1.40780096349000E-01 
1.43146292191000E-01 1.45552255102000E-01 1.47998653420000E-01 1.50486166718000E-01 
1.53015485985000E-01 1.55587313828000E-01 1.58202364659000E-01 1.60861364898000E-01 
1.63565053174000E-01 1.66314180529000E-01 1.69109510625000E-01 1.71951819964000E-01 
1.74841898091000E-01 1.77780547827000E-01 1.80768585481000E-01 1.83806841083000E-01 
1.86896158613000E-01 1.90037396233000E-01 1.93231426531000E-01 1.96479136758000E-01 
1.99781429075000E-01 2.03139220808000E-01 2.06553444698000E-01 2.10025049163000E-01 
2.13554998560000E-01 2.17144273453000E-01 2.20793870885000E-01 2.24504804657000E-01 
2.28278105609000E-01 2.32114821902000E-01 2.36016019318000E-01 2.39982781546000E-01 
2.44016210491000E-01 2.48117426575000E-01 2.52287569052000E-01 2.56527796320000E-01 
2.60839286250000E-01 2.65223236503000E-01 2.69680864873000E-01 2.74213409618000E-01 
2.78822129807000E-01 2.83508305671000E-01 2.88273238954000E-01 2.93118253281000E-01 
2.98044694519000E-01 3.03053931156000E-01 3.08147354678000E-01 3.13326379960000E-01 
3.18592445651000E-01 3.23947014582000E-01 3.29391574168000E-01 3.34927636821000E-01 
3.40556740372000E-01 3.46280448497000E-01 3.52100351152000E-01 3.58018065013000E-01 
3.64035233929000E-01 3.70153529374000E-01 3.76374650913000E-01 3.82700326677000E-01 
3.89132313837000E-01 3.95672399098000E-01 4.02322399193000E-01 4.09084161387000E-01 
4.15959563990000E-01 4.22950516881000E-01 4.30058962035000E-01 4.37286874068000E-01 
4.44636260778000E-01 4.52109163710000E-01 4.59707658717000E-01 4.67433856541000E-01 
4.75289903399000E-01 4.83277981576000E-01 4.91400310033000E-01 4.99659145027000E-01 
5.08056780730000E-01 5.16595549873000E-01 5.25277824391000E-01 5.34106016083000E-01 
5.43082577282000E-01 5.52210001534000E-01 5.61490824293000E-01 5.70927623626000E-01 
5.80523020926000E-01 5.90279681644000E-01 6.00200316025000E-01 6.10287679865000E-01 
6.20544575275000E-01 6.30973851457000E-01 6.41578405501000E-01 6.52361183183000E-01 
6.63325179790000E-01 6.74473440946000E-01 6.85809063463000E-01 6.97335196196000E-01 
7.09055040924000E-01 7.20971853235000E-01 7.33088943431000E-01 7.45409677448000E-01 
7.57937477791000E-01 7.70675824486000E-01 7.83628256044000E-01 7.96798370446000E-01 
8.10189826142000E-01 8.23806343067000E-01 8.37651703674000E-01 8.51729753985000E-01 
8.66044404662000E-01 8.80599632087000E-01 8.95399479473000E-01 9.10448057983000E-01 
9.25749547876000E-01 9.41308199664000E-01 9.57128335294000E-01 9.73214349350000E-01 
9.89570710273000E-01 1.00620196160000E+00 1.02311272323000E+00 1.04030769271000E+00 
1.05779164653000E+00 1.07556944145000E+00 1.09364601587000E+00 1.11202639117000E+00 
1.13071567313000E+00 1.14971905334000E+00 1.16904181063000E+00 1.18868931257000E+00 
1.20866701691000E+00 1.22898047316000E+00 1.24963532406000E+00 1.27063730721000E+00 
1.29199225662000E+00 1.31370610438000E+00 1.33578488223000E+00 1.35823472331000E+00 
1.38106186385000E+00 1.40427264485000E+00 1.42787351390000E+00 1.45187102695000E+00 
1.47627185014000E+00 1.50108276163000E+00 1.52631065349000E+00 1.55196253363000E+00 
1.57804552775000E+00 1.60456688129000E+00 1.63153396145000E+00 1.65895425927000E+00 
1.68683539168000E+00 1.71518510361000E+00 1.74401127017000E+00 1.77332189880000E+00 
1.80312513155000E+00 1.83342924727000E+00 1.86424266397000E+00 1.89557394113000E+00 
1.92743178209000E+00 1.95982503644000E+00 1.99276270254000E+00 2.02625392993000E+00 
2.06030802195000E+00 2.09493443830000E+00 2.13014279764000E+00 2.16594288029000E+00 
2.20234463097000E+00 2.23935816149000E+00 2.27699375364000E+00 2.31526186198000E+00 
2.35417311679000E+00 2.39373832701000E+00 2.43396848323000E+00 2.47487476074000E+00 
2.51646852266000E+00 2.55876132309000E+00 2.60176491030000E+00 2.64549123000000E+00 
2.68995242867000E+00 2.73516085694000E+00 2.78112907300000E+00 2.82786984608000E+00 
2.87539616003000E+00 2.92372121692000E+00 2.97285844068000E+00 3.02282148085000E+00 
3.07362421639000E+00 3.12528075949000E+00 3.17780545951000E+00 3.23121290700000E+00 
3.28551793769000E+00 3.34073563667000E+00 3.39688134255000E+00 3.45397065170000E+00 
3.51201942265000E+00 3.57104378042000E+00 3.63106012105000E+00 3.69208511613000E+00 
3.75413571744000E+00 3.81722916165000E+00 3.88138297513000E+00 3.94661497880000E+00 
4.01294329307000E+00 4.08038634291000E+00 4.14896286292000E+00 4.21869190258000E+00 
4.28959283153000E+00 4.36168534491000E+00 4.43498946889000E+00 4.50952556619000E+00 
4.58531434177000E+00 4.66237684856000E+00 4.74073449329000E+00 4.82040904249000E+00 
4.90142262849000E+00 4.98379775557000E+00 5.06755730626000E+00 5.15272454763000E+00 
5.23932313780000E+00 5.32737713249000E+00 5.41691099170000E+00 5.50794958653000E+00 
5.60051820606000E+00 5.69464256440000E+00 5.79034880780000E+00 5.88766352195000E+00 
5.98661373933000E+00 6.08722694676000E+00 6.18953109299000E+00 6.29355459651000E+00 
6.39932635339000E+00 6.50687574537000E+00 6.61623264796000E+00 6.72742743878000E+00 
6.84049100600000E+00 6.95545475688000E+00 7.07235062654000E+00 7.19121108681000E+00 
7.31206915525000E+00 7.43495840431000E+00 7.55991297069000E+00 7.68696756480000E+00 
7.81615748039000E+00 7.94751860439000E+00 8.08108742684000E+00 8.21690105104000E+00 
8.35499720389000E+00 8.49541424630000E+00 8.63819118393000E+00 8.78336767794000E+00 
8.93098405607000E+00 9.08108132382000E+00 9.23370117584000E+00 9.38888600752000E+00 
9.54667892675000E+00 9.70712376592000E+00 9.87026509406000E+00 1.00361482293000E+01 
1.02048192512000E+01 1.03763250141000E+01 1.05507131596000E+01 1.07280321298000E+01 
1.09083311812000E+01 1.10916603980000E+01 1.12780707062000E+01 1.14676138876000E+01 
1.16603425944000E+01 1.18563103635000E+01 1.20555716316000E+01 1.22581817505000E+01 
1.24641970020000E+01 1.26736746138000E+01 1.28866727756000E+01 1.31032506549000E+01 
1.33234684136000E+01 1.35473872247000E+01 1.37750692893000E+01 1.40065778539000E+01 
1.42419772279000E+01 1.44813328016000E+01 1.47247110641000E+01 1.49721796221000E+01 
1.52238072185000E+01 1.54796637513000E+01 1.57398202936000E+01 1.60043491128000E+01 
1.62733236906000E+01 1.65468187440000E+01 1.68249102457000E+01 1.71076754451000E+01 
1.73951928898000E+01 1.76875424476000E+01 1.79848053288000E+01 1.82870641081000E+01 
1.85944027483000E+01 1.89069066233000E+01 1.92246625416000E+01 1.95477587709000E+01 
1.98762850621000E+01 2.02103326747000E+01 2.05499944019000E+01 2.08953645963000E+01 
2.12465391963000E+01 2.16036157526000E+01 2.19666934555000E+01 2.23358731623000E+01 
2.27112574251000E+01 2.30929505199000E+01 2.34810584750000E+01 2.38756891006000E+01 
2.42769520188000E+01 2.46849586943000E+01 2.50998224647000E+01 2.55216585727000E+01 
2.59505841977000E+01 2.63867184885000E+01 2.68301825962000E+01 2.72810997083000E+01 
2.77395950823000E+01 2.82057960811000E+01 2.86798322079000E+01 2.91618351424000E+01 
2.96519387775000E+01 3.01502792562000E+01 3.06569950097000E+01 3.11722267955000E+01 
3.16961177369000E+01 3.22288133626000E+01 3.27704616470000E+01 3.33212130513000E+01 
3.38812205658000E+01 3.44506397515000E+01 3.50296287842000E+01 3.56183484979000E+01 
3.62169624296000E+01 3.68256368648000E+01 3.74445408837000E+01 3.80738464080000E+01 
3.87137282488000E+01 3.93643641553000E+01 4.00259348638000E+01 4.06986241481000E+01 
4.13826188709000E+01 4.20781090349000E+01 4.27852878364000E+01 4.35043517185000E+01 
4.42355004257000E+01 4.49789370597000E+01 4.57348681354000E+01 4.65035036385000E+01 
4.72850570838000E+01 4.80797455745000E+01 4.88877898625000E+01 4.97094144098000E+01 
5.05448474508000E+01 5.13943210554000E+01 5.22580711940000E+01 5.31363378029000E+01 
5.40293648506000E+01 5.49374004058000E+01 5.58606967066000E+01 5.67995102301000E+01 
5.77541017639000E+01 5.87247364783000E+01 5.97116840004000E+01 6.07152184887000E+01 
6.17356187091000E+01 6.27731681128000E+01 6.38281549145000E+01 6.49008721730000E+01 
6.59916178721000E+01 6.71006950038000E+01 6.82284116522000E+01 6.93750810792000E+01 
7.05410218114000E+01 7.17265577288000E+01 7.29320181545000E+01 7.41577379464000E+01 
7.54040575900000E+01 7.66713232934000E+01 7.79598870828000E+01 7.92701069011000E+01 
8.06023467064000E+01 8.19569765741000E+01 8.33343727989000E+01 8.47349179997000E+01 
8.61590012259000E+01 8.76070180653000E+01 8.90793707541000E+01 9.05764682886000E+01 
9.20987265389000E+01 9.36465683643000E+01 9.52204237308000E+01 9.68207298306000E+01 
9.84479312034000E+01 1.00102479860000E+02 1.01784835408000E+02 1.03495465179000E+02 
1.05234844360000E+02 1.07003456121000E+02 1.08801791756000E+02 1.10630350814000E+02 
1.12489641240000E+02 1.14380179514000E+02 1.16302490800000E+02 1.18257109084000E+02 
1.20244577329000E+02 1.22265447622000E+02 1.24320281328000E+02 1.26409649249000E+02 
1.28534131777000E+02 1.30694319061000E+02 1.32890811166000E+02 1.35124218243000E+02 
1.37395160697000E+02 1.39704269360000E+02 1.42052185666000E+02 1.44439561829000E+02 
1.46867061025000E+02 1.49335357575000E+02 1.51845137132000E+02 
</PP_R>
    <PP_RAB>
1.97377048821000E-07 2.00694232714000E-07 2.04067166296000E-07 2.07496786514000E-07 
2.10984046062000E-07 2.14529913646000E-07 2.18135374253000E-07 2.21801429422000E-07 
2.25529097525000E-07 2.29319414049000E-07 2.33173431886000E-07 2.37092221619000E-07 
2.41076871828000E-07 2.45128489384000E-07 2.49248199764000E-07 2.53437147357000E-07 
2.57696495788000E-07 2.62027428236000E-07 2.66431147765000E-07 2.70908877659000E-07 
2.75461861762000E-07 2.80091364819000E-07 2.84798672835000E-07 2.89585093424000E-07 
2.94451956179000E-07 2.99400613038000E-07 3.04432438658000E-07 3.09548830803000E-07 
3.14751210724000E-07 3.20041023561000E-07 3.25419738740000E-07 3.30888850383000E-07 
3.36449877724000E-07 3.42104365527000E-07 3.47853884521000E-07 3.53700031830000E-07 
3.59644431423000E-07 3.65688734559000E-07 3.71834620251000E-07 3.78083795728000E-07 
3.84437996912000E-07 3.90898988901000E-07 3.97468566456000E-07 4.04148554502000E-07 
4.10940808635000E-07 4.17847215634000E-07 4.24869693991000E-07 4.32010194439000E-07 
4.39270700497000E-07 4.46653229018000E-07 4.54159830753000E-07 4.61792590917000E-07 
4.69553629770000E-07 4.77445103206000E-07 4.85469203352000E-07 4.93628159176000E-07 
5.01924237107000E-07 5.10359741665000E-07 5.18937016099000E-07 5.27658443041000E-07 
5.36526445166000E-07 5.45543485864000E-07 5.54712069928000E-07 5.64034744244000E-07 
5.73514098505000E-07 5.83152765926000E-07 5.92953423976000E-07 6.02918795123000E-07 
6.13051647590000E-07 6.23354796123000E-07 6.33831102774000E-07 6.44483477697000E-07 
6.55314879951000E-07 6.66328318331000E-07 6.77526852195000E-07 6.88913592318000E-07 
7.00491701758000E-07 7.12264396731000E-07 7.24234947505000E-07 7.36406679310000E-07 
7.48782973261000E-07 7.61367267297000E-07 7.74163057136000E-07 7.87173897248000E-07 
8.00403401836000E-07 8.13855245850000E-07 8.27533165998000E-07 8.41440961791000E-07 
8.55582496596000E-07 8.69961698706000E-07 8.84582562438000E-07 8.99449149236000E-07 
9.14565588804000E-07 9.29936080249000E-07 9.45564893252000E-07 9.61456369250000E-07 
9.77614922643000E-07 9.94045042024000E-07 1.01075129142000E-06 1.02773831156000E-06 
1.04501082118000E-06 1.06257361829000E-06 1.08043158158000E-06 1.09858967170000E-06 
1.11705293268000E-06 1.13582649333000E-06 1.15491556864000E-06 1.17432546125000E-06 
1.19406156294000E-06 1.21412935606000E-06 1.23453441515000E-06 1.25528240841000E-06 
1.27637909929000E-06 1.29783034813000E-06 1.31964211375000E-06 1.34182045510000E-06 
1.36437153299000E-06 1.38730161174000E-06 1.41061706098000E-06 1.43432435735000E-06 
1.45843008638000E-06 1.48294094426000E-06 1.50786373971000E-06 1.53320539590000E-06 
1.55897295233000E-06 1.58517356683000E-06 1.61181451752000E-06 1.63890320482000E-06 
1.66644715355000E-06 1.69445401498000E-06 1.72293156898000E-06 1.75188772617000E-06 
1.78133053009000E-06 1.81126815951000E-06 1.84170893061000E-06 1.87266129938000E-06 
1.90413386388000E-06 1.93613536669000E-06 1.96867469734000E-06 2.00176089472000E-06 
2.03540314967000E-06 2.06961080748000E-06 2.10439337048000E-06 2.13976050073000E-06 
2.17572202265000E-06 2.21228792579000E-06 2.24946836758000E-06 2.28727367616000E-06 
2.32571435324000E-06 2.36480107705000E-06 2.40454470525000E-06 2.44495627799000E-06 
2.48604702098000E-06 2.52782834857000E-06 2.57031186696000E-06 2.61350937739000E-06 
2.65743287945000E-06 2.70209457440000E-06 2.74750686856000E-06 2.79368237673000E-06 
2.84063392574000E-06 2.88837455801000E-06 2.93691753511000E-06 2.98627634152000E-06 
3.03646468834000E-06 3.08749651710000E-06 3.13938600363000E-06 3.19214756202000E-06 
3.24579584859000E-06 3.30034576599000E-06 3.35581246732000E-06 3.41221136036000E-06 
3.46955811183000E-06 3.52786865175000E-06 3.58715917787000E-06 3.64744616016000E-06 
3.70874634540000E-06 3.77107676180000E-06 3.83445472377000E-06 3.89889783670000E-06 
3.96442400189000E-06 4.03105142146000E-06 4.09879860345000E-06 4.16768436697000E-06 
4.23772784738000E-06 4.30894850167000E-06 4.38136611381000E-06 4.45500080026000E-06 
4.52987301558000E-06 4.60600355809000E-06 4.68341357565000E-06 4.76212457154000E-06 
4.84215841043000E-06 4.92353732445000E-06 5.00628391940000E-06 5.09042118095000E-06 
5.17597248113000E-06 5.26296158471000E-06 5.35141265592000E-06 5.44135026505000E-06 
5.53279939535000E-06 5.62578544995000E-06 5.72033425890000E-06 5.81647208638000E-06 
5.91422563794000E-06 6.01362206799000E-06 6.11468898729000E-06 6.21745447061000E-06 
6.32194706461000E-06 6.42819579566000E-06 6.53623017799000E-06 6.64608022184000E-06 
6.75777644182000E-06 6.87134986538000E-06 6.98683204142000E-06 7.10425504906000E-06 
7.22365150656000E-06 7.34505458038000E-06 7.46849799436000E-06 7.59401603914000E-06 
7.72164358166000E-06 7.85141607481000E-06 7.98336956737000E-06 8.11754071391000E-06 
8.25396678507000E-06 8.39268567786000E-06 8.53373592619000E-06 8.67715671160000E-06 
8.82298787411000E-06 8.97126992331000E-06 9.12204404963000E-06 9.27535213572000E-06 
9.43123676816000E-06 9.58974124924000E-06 9.75090960900000E-06 9.91478661745000E-06 
1.00814177971000E-05 1.02508494353000E-05 1.04231285977000E-05 1.05983031405000E-05 
1.07764217246000E-05 1.09575338285000E-05 1.11416897623000E-05 1.13289406815000E-05 
1.15193386015000E-05 1.17129364119000E-05 1.19097878910000E-05 1.21099477211000E-05 
1.23134715035000E-05 1.25204157738000E-05 1.27308380178000E-05 1.29447966877000E-05 
1.31623512176000E-05 1.33835620408000E-05 1.36084906062000E-05 1.38371993954000E-05 
1.40697519401000E-05 1.43062128396000E-05 1.45466477792000E-05 1.47911235478000E-05 
1.50397080569000E-05 1.52924703594000E-05 1.55494806687000E-05 1.58108103781000E-05 
1.60765320810000E-05 1.63467195906000E-05 1.66214479608000E-05 1.69007935067000E-05 
1.71848338262000E-05 1.74736478211000E-05 1.77673157195000E-05 1.80659190975000E-05 
1.83695409026000E-05 1.86782654761000E-05 1.89921785767000E-05 1.93113674046000E-05 
1.96359206254000E-05 1.99659283949000E-05 2.03014823840000E-05 2.06426758042000E-05 
2.09896034339000E-05 2.13423616438000E-05 2.17010484248000E-05 2.20657634144000E-05 
2.24366079246000E-05 2.28136849701000E-05 2.31970992970000E-05 2.35869574118000E-05 
2.39833676109000E-05 2.43864400107000E-05 2.47962865785000E-05 2.52130211631000E-05 
2.56367595268000E-05 2.60676193774000E-05 2.65057204011000E-05 2.69511842953000E-05 
2.74041348028000E-05 2.78646977463000E-05 2.83330010627000E-05 2.88091748394000E-05 
2.92933513499000E-05 2.97856650908000E-05 3.02862528191000E-05 3.07952535902000E-05 
3.13128087963000E-05 3.18390622063000E-05 3.23741600049000E-05 3.29182508339000E-05 
3.34714858332000E-05 3.40340186826000E-05 3.46060056450000E-05 3.51876056092000E-05 
3.57789801345000E-05 3.63802934956000E-05 3.69917127276000E-05 3.76134076733000E-05 
3.82455510296000E-05 3.88883183960000E-05 3.95418883231000E-05 4.02064423624000E-05 
4.08821651164000E-05 4.15692442902000E-05 4.22678707437000E-05 4.29782385441000E-05 
4.37005450205000E-05 4.44349908182000E-05 4.51817799546000E-05 4.59411198759000E-05 
4.67132215149000E-05 4.74982993491000E-05 4.82965714607000E-05 4.91082595972000E-05 
4.99335892327000E-05 5.07727896307000E-05 5.16260939079000E-05 5.24937390986000E-05 
5.33759662211000E-05 5.42730203441000E-05 5.51851506551000E-05 5.61126105294000E-05 
5.70556576008000E-05 5.80145538329000E-05 5.89895655918000E-05 5.99809637205000E-05 
6.09890236136000E-05 6.20140252944000E-05 6.30562534921000E-05 6.41159977212000E-05 
6.51935523619000E-05 6.62892167420000E-05 6.74032952196000E-05 6.85360972682000E-05 
6.96879375623000E-05 7.08591360649000E-05 7.20500181165000E-05 7.32609145253000E-05 
7.44921616592000E-05 7.57441015392000E-05 7.70170819345000E-05 7.83114564589000E-05 
7.96275846691000E-05 8.09658321650000E-05 8.23265706903000E-05 8.37101782369000E-05 
8.51170391490000E-05 8.65475442305000E-05 8.80020908529000E-05 8.94810830665000E-05 