<UPF version="2.0.1">
  <PP_INFO>
Generated using Vanderbilt code, version   7  3  6
Author: kfg        Generation date:   13    5 2013
Automatically converted from original USPP format to UPF.v1.

Futher converted to UPF.v2 format.
Convert Q_IJ to Q_IJL use the same routine as 'upflib/upf_to_internal.f90' of QE.
The conversion is done by using PseudoPotentialIO.jl package.
Converted by: JYU on 2024-04-30

1        The Pseudo was generated with a Scalar-Relativistic Calculation
2.00000000000E+00    Local Potential cutoff radius
nl pn  l   occ               Rcut            Rcut US             E pseu
5S  5  0  2.00      0.00000000000      1.70000000000     -2.90228357000
5P  5  1  6.00      0.00000000000      1.90000000000     -1.68738129900
5D  5  2  1.00      0.00000000000      2.00000000000     -0.26002334700
6S  6  0  1.50      0.00000000000      1.70000000000     -0.29352904900
6P  6  1  0.50      0.00000000000      1.90000000000     -0.11873872200
4F  4  3  0.00      0.00000000000      2.00000000000     -0.36069691600
</PP_INFO>
  <PP_HEADER element="La" pseudo_type="US" relativistic="scalar" is_ultrasoft="T" is_paw="F" is_coulomb="F" has_so="F" has_wfc="F" has_gipaw="F" core_correction="T" functional="PBE" z_valence="11.0" total_psenergy="-102.127236196" wfc_cutoff="0.0" rho_cutoff="0.0" l_max="3" mesh_size="995" number_of_wfc="6" number_of_proj="8"/>
  <PP_MESH>
    <PP_R>
0.00000000000000E+00 7.43347527719000E-07 1.49940154400000E-06 2.26837924853000E-06 
3.05050155372000E-06 3.84599314817000E-06 4.65508256124000E-06 5.47800222865000E-06 
6.31498855929000E-06 7.16628200315000E-06 8.03212712035000E-06 8.91277265144000E-06 
9.80847158885000E-06 1.07194812495000E-05 1.16460633490000E-05 1.25884840762000E-05 
1.35470141706000E-05 1.45219289991000E-05 1.55135086361000E-05 1.65220379431000E-05 
1.75478066511000E-05 1.85911094435000E-05 1.96522460412000E-05 2.07315212880000E-05 
2.18292452390000E-05 2.29457332489000E-05 2.40813060631000E-05 2.52362899098000E-05 
2.64110165934000E-05 2.76058235902000E-05 2.88210541451000E-05 3.00570573704000E-05 
3.13141883458000E-05 3.25928082208000E-05 3.38932843181000E-05 3.52159902393000E-05 
3.65613059723000E-05 3.79296180001000E-05 3.93213194125000E-05 4.07368100182000E-05 
4.21764964603000E-05 4.36407923329000E-05 4.51301182999000E-05 4.66449022157000E-05 
4.81855792486000E-05 4.97525920051000E-05 5.13463906578000E-05 5.29674330740000E-05 
5.46161849481000E-05 5.62931199344000E-05 5.79987197840000E-05 5.97334744826000E-05 
6.14978823918000E-05 6.32924503917000E-05 6.51176940270000E-05 6.69741376550000E-05 
6.88623145959000E-05 7.07827672865000E-05 7.27360474356000E-05 7.47227161828000E-05 
7.67433442596000E-05 7.87985121534000E-05 8.08888102741000E-05 8.30148391239000E-05 
8.51772094699000E-05 8.73765425190000E-05 8.96134700972000E-05 9.18886348304000E-05 
9.42026903296000E-05 9.65563013779000E-05 9.89501441224000E-05 1.01384906268000E-04 
1.03861287274000E-04 1.06379998557000E-04 1.08941763695000E-04 1.11547318633000E-04 
1.14197411895000E-04 1.16892804804000E-04 1.19634271693000E-04 1.22422600132000E-04 
1.25258591154000E-04 1.28143059485000E-04 1.31076833776000E-04 1.34060756845000E-04 
1.37095685914000E-04 1.40182492860000E-04 1.43322064462000E-04 1.46515302660000E-04 
1.49763124808000E-04 1.53066463943000E-04 1.56426269050000E-04 1.59843505336000E-04 
1.63319154508000E-04 1.66854215051000E-04 1.70449702522000E-04 1.74106649832000E-04 
1.77826107553000E-04 1.81609144213000E-04 1.85456846605000E-04 1.89370320099000E-04 
1.93350688961000E-04 1.97399096674000E-04 2.01516706266000E-04 2.05704700648000E-04 
2.09964282949000E-04 2.14296676865000E-04 2.18703127008000E-04 2.23184899267000E-04 
2.27743281168000E-04 2.32379582245000E-04 2.37095134420000E-04 2.41891292377000E-04 
2.46769433961000E-04 2.51730960568000E-04 2.56777297547000E-04 2.61909894615000E-04 
2.67130226266000E-04 2.72439792201000E-04 2.77840117756000E-04 2.83332754339000E-04 
2.88919279879000E-04 2.94601299277000E-04 3.00380444866000E-04 3.06258376884000E-04 
3.12236783946000E-04 3.18317383533000E-04 3.24501922484000E-04 3.30792177498000E-04 
3.37189955642000E-04 3.43697094874000E-04 3.50315464570000E-04 3.57046966060000E-04 
3.63893533173000E-04 3.70857132795000E-04 3.77939765435000E-04 3.85143465795000E-04 
3.92470303359000E-04 3.99922382986000E-04 4.07501845514000E-04 4.15210868375000E-04 
4.23051666224000E-04 4.31026491569000E-04 4.39137635424000E-04 4.47387427963000E-04 
4.55778239191000E-04 4.64312479628000E-04 4.72992600994000E-04 4.81821096921000E-04 
4.90800503664000E-04 4.99933400834000E-04 5.09222412135000E-04 5.18670206121000E-04 
5.28279496959000E-04 5.38053045213000E-04 5.47993658635000E-04 5.58104192969000E-04 
5.68387552778000E-04 5.78846692271000E-04 5.89484616157000E-04 6.00304380505000E-04 
6.11309093625000E-04 6.22501916957000E-04 6.33886065983000E-04 6.45464811148000E-04 
6.57241478803000E-04 6.69219452156000E-04 6.81402172247000E-04 6.93793138935000E-04 
7.06395911906000E-04 7.19214111692000E-04 7.32251420714000E-04 7.45511584338000E-04 
7.58998411954000E-04 7.72715778066000E-04 7.86667623407000E-04 8.00857956073000E-04 
8.15290852672000E-04 8.29970459495000E-04 8.44900993709000E-04 8.60086744569000E-04 
8.75532074647000E-04 8.91241421086000E-04 9.07219296879000E-04 9.23470292159000E-04 
9.39999075523000E-04 9.56810395372000E-04 9.73909081271000E-04 9.91300045342000E-04 
1.00898828367000E-03 1.02697887775000E-03 1.04527699593000E-03 1.06388789490000E-03 
1.08281692121000E-03 1.10206951282000E-03 1.12165120060000E-03 1.14156761001000E-03 
1.16182446265000E-03 1.18242757791000E-03 1.20338287467000E-03 1.22469637298000E-03 
1.24637419580000E-03 1.26842257075000E-03 1.29084783189000E-03 1.31365642158000E-03 
1.33685489228000E-03 1.36044990846000E-03 1.38444824851000E-03 1.40885680669000E-03 
1.43368259511000E-03 1.45893274573000E-03 1.48461451244000E-03 1.51073527311000E-03 
1.53730253173000E-03 1.56432392056000E-03 1.59180720232000E-03 1.61976027242000E-03 
1.64819116125000E-03 1.67710803644000E-03 1.70651920525000E-03 1.73643311695000E-03 
1.76685836523000E-03 1.79780369066000E-03 1.82927798324000E-03 1.86129028492000E-03 
1.89384979223000E-03 1.92696585887000E-03 1.96064799846000E-03 1.99490588721000E-03 
2.02974936677000E-03 2.06518844697000E-03 2.10123330880000E-03 2.13789430723000E-03 
2.17518197426000E-03 2.21310702193000E-03 2.25168034535000E-03 2.29091302591000E-03 
2.33081633439000E-03 2.37140173423000E-03 2.41268088484000E-03 2.45466564493000E-03 
2.49736807589000E-03 2.54080044532000E-03 2.58497523048000E-03 2.62990512195000E-03 
2.67560302720000E-03 2.72208207437000E-03 2.76935561599000E-03 2.81743723282000E-03 
2.86634073779000E-03 2.91608017993000E-03 2.96666984841000E-03 3.01812427667000E-03 
3.07045824657000E-03 3.12368679265000E-03 3.17782520644000E-03 3.23288904086000E-03 
3.28889411467000E-03 3.34585651707000E-03 3.40379261223000E-03 3.46271904408000E-03 
3.52265274105000E-03 3.58361092093000E-03 3.64561109581000E-03 3.70867107716000E-03 
3.77280898088000E-03 3.83804323255000E-03 3.90439257271000E-03 3.97187606225000E-03 
4.04051308786000E-03 4.11032336763000E-03 4.18132695670000E-03 4.25354425304000E-03 
4.32699600327000E-03 4.40170330866000E-03 4.47768763117000E-03 4.55497079963000E-03 
4.63357501600000E-03 4.71352286174000E-03 4.79483730434000E-03 4.87754170384000E-03 
4.96165981963000E-03 5.04721581722000E-03 5.13423427518000E-03 5.22274019223000E-03 
5.31275899442000E-03 5.40431654240000E-03 5.49743913888000E-03 5.59215353619000E-03 
5.68848694393000E-03 5.78646703684000E-03 5.88612196269000E-03 5.98748035041000E-03 
6.09057131832000E-03 6.19542448245000E-03 6.30206996509000E-03 6.41053840342000E-03 
6.52086095832000E-03 6.63306932333000E-03 6.74719573373000E-03 6.86327297585000E-03 
6.98133439642000E-03 7.10141391221000E-03 7.22354601974000E-03 7.34776580520000E-03 
7.47410895452000E-03 7.60261176366000E-03 7.73331114898000E-03 7.86624465789000E-03 
8.00145047960000E-03 8.13896745615000E-03 8.27883509348000E-03 8.42109357288000E-03 
8.56578376244000E-03 8.71294722887000E-03 8.86262624936000E-03 9.01486382382000E-03 
9.16970368715000E-03 9.32719032185000E-03 9.48736897078000E-03 9.65028565016000E-03 
9.81598716281000E-03 9.98452111156000E-03 1.01559359130000E-02 1.03302808112000E-02 
1.05076058921000E-02 1.06879620978000E-02 1.08714012411000E-02 1.10579760206000E-02 
1.12477400355000E-02 1.14407478014000E-02 1.16370547658000E-02 1.18367173237000E-02 
1.20397928344000E-02 1.22463396375000E-02 1.24564170700000E-02 1.26700854830000E-02 
1.28874062593000E-02 1.31084418310000E-02 1.33332556973000E-02 1.35619124429000E-02 
1.37944777564000E-02 1.40310184494000E-02 1.42716024755000E-02 1.45162989497000E-02 
1.47651781686000E-02 1.50183116305000E-02 1.52757720556000E-02 1.55376334073000E-02 
1.58039709134000E-02 1.60748610874000E-02 1.63503817510000E-02 1.66306120557000E-02 
1.69156325064000E-02 1.72055249840000E-02 1.75003727688000E-02 1.78002605651000E-02 
1.81052745247000E-02 1.84155022722000E-02 1.87310329302000E-02 1.90519571444000E-02 
1.93783671101000E-02 1.97103565987000E-02 2.00480209842000E-02 2.03914572712000E-02 
2.07407641222000E-02 2.10960418863000E-02 2.14573926279000E-02 2.18249201562000E-02 
2.21987300546000E-02 2.25789297116000E-02 2.29656283511000E-02 2.33589370641000E-02 
2.37589688407000E-02 2.41658386023000E-02 2.45796632345000E-02 2.50005616213000E-02 
2.54286546786000E-02 2.58640653893000E-02 2.63069188384000E-02 2.67573422492000E-02 
2.72154650196000E-02 2.76814187594000E-02 2.81553373280000E-02 2.86373568732000E-02 
2.91276158698000E-02 2.96262551597000E-02 3.01334179924000E-02 3.06492500659000E-02 
3.11738995688000E-02 3.17075172227000E-02 3.22502563257000E-02 3.28022727963000E-02 
3.33637252179000E-02 3.39347748852000E-02 3.45155858496000E-02 3.51063249668000E-02 
3.57071619447000E-02 3.63182693923000E-02 3.69398228688000E-02 3.75720009346000E-02 
3.82149852021000E-02 3.88689603883000E-02 3.95341143676000E-02 4.02106382259000E-02 
4.08987263154000E-02 4.15985763105000E-02 4.23103892645000E-02 4.30343696675000E-02 
4.37707255052000E-02 4.45196683182000E-02 4.52814132634000E-02 4.60561791753000E-02 
4.68441886292000E-02 4.76456680050000E-02 4.84608475521000E-02 4.92899614559000E-02 
5.01332479048000E-02 5.09909491586000E-02 5.18633116183000E-02 5.27505858968000E-02 
5.36530268908000E-02 5.45708938542000E-02 5.55044504723000E-02 5.64539649378000E-02 
5.74197100281000E-02 5.84019631828000E-02 5.94010065844000E-02 6.04171272386000E-02 
6.14506170573000E-02 6.25017729421000E-02 6.35708968698000E-02 6.46582959789000E-02 
6.57642826582000E-02 6.68891746362000E-02 6.80332950727000E-02 6.91969726513000E-02 
7.03805416741000E-02 7.15843421575000E-02 7.28087199301000E-02 7.40540267320000E-02 
7.53206203157000E-02 7.66088645491000E-02 7.79191295197000E-02 7.92517916414000E-02 
8.06072337621000E-02 8.19858452743000E-02 8.33880222262000E-02 8.48141674362000E-02 
8.62646906083000E-02 8.77400084496000E-02 8.92405447904000E-02 9.07667307058000E-02 
9.23190046395000E-02 9.38978125297000E-02 9.55036079373000E-02 9.71368521764000E-02 
9.87980144464000E-02 1.00487571967000E-01 1.02206010116000E-01 1.03953822566000E-01 
1.05731511431000E-01 1.07539587406000E-01 1.09378569916000E-01 1.11248987266000E-01 
1.13151376791000E-01 1.15086285009000E-01 1.17054267783000E-01 1.19055890475000E-01 
1.21091728115000E-01 1.23162365557000E-01 1.25268397657000E-01 1.27410429436000E-01 
1.29589076259000E-01 1.31804964009000E-01 1.34058729267000E-01 1.36351019497000E-01 
1.38682493230000E-01 1.41053820252000E-01 1.43465681800000E-01 1.45918770755000E-01 
1.48413791843000E-01 1.50951461834000E-01 1.53532509751000E-01 1.56157677081000E-01 
1.58827717982000E-01 1.61543399507000E-01 1.64305501817000E-01 1.67114818411000E-01 
1.69972156351000E-01 1.72878336496000E-01 1.75834193735000E-01 1.78840577228000E-01 
1.81898350650000E-01 1.85008392443000E-01 1.88171596059000E-01 1.91388870226000E-01 
1.94661139205000E-01 1.97989343056000E-01 2.01374437906000E-01 2.04817396229000E-01 
2.08319207119000E-01 2.11880876579000E-01 2.15503427808000E-01 2.19187901494000E-01 
2.22935356116000E-01 2.26746868245000E-01 2.30623532854000E-01 2.34566463634000E-01 
2.38576793314000E-01 2.42655673982000E-01 2.46804277422000E-01 2.51023795449000E-01 
2.55315440248000E-01 2.59680444724000E-01 2.64120062861000E-01 2.68635570074000E-01 
2.73228263580000E-01 2.77899462772000E-01 2.82650509596000E-01 2.87482768934000E-01 
2.92397629002000E-01 2.97396501743000E-01 3.02480823237000E-01 3.07652054111000E-01 
3.12911679961000E-01 3.18261211773000E-01 3.23702186366000E-01 3.29236166827000E-01 
3.34864742960000E-01 3.40589531746000E-01 3.46412177808000E-01 3.52334353877000E-01 
3.58357761282000E-01 3.64484130430000E-01 3.70715221308000E-01 3.77052823988000E-01 
3.83498759142000E-01 3.90054878561000E-01 3.96723065692000E-01 4.03505236175000E-01 
4.10403338398000E-01 4.17419354051000E-01 4.24555298699000E-01 4.31813222363000E-01 
4.39195210103000E-01 4.46703382620000E-01 4.54339896868000E-01 4.62106946670000E-01 
4.70006763348000E-01 4.78041616367000E-01 4.86213813985000E-01 4.94525703916000E-01 
5.02979674005000E-01 5.11578152914000E-01 5.20323610821000E-01 5.29218560124000E-01 
5.38265556173000E-01 5.47467197992000E-01 5.56826129037000E-01 5.66345037946000E-01 
5.76026659319000E-01 5.85873774497000E-01 5.95889212366000E-01 6.06075850168000E-01 
6.16436614326000E-01 6.26974481288000E-01 6.37692478379000E-01 6.48593684672000E-01 
6.59681231873000E-01 6.70958305220000E-01 6.82428144396000E-01 6.94094044466000E-01 
7.05959356817000E-01 7.18027490123000E-01 7.30301911325000E-01 7.42786146627000E-01 
7.55483782509000E-01 7.68398466755000E-01 7.81533909505000E-01 7.94893884316000E-01 
8.08482229251000E-01 8.22302847979000E-01 8.36359710896000E-01 8.50656856266000E-01 
8.65198391383000E-01 8.79988493749000E-01 8.95031412273000E-01 9.10331468495000E-01 
9.25893057826000E-01 9.41720650808000E-01 9.57818794403000E-01 9.74192113296000E-01 
9.90845311224000E-01 1.00778317233000E+00 1.02501056253000E+00 1.04253243093000E+00 
1.06035381121000E+00 1.07847982312000E+00 1.09691567390000E+00 1.11566665982000E+00 
1.13473816768000E+00 1.15413567635000E+00 1.17386475835000E+00 1.19393108148000E+00 
1.21434041040000E+00 1.23509860832000E+00 1.25621163865000E+00 1.27768556678000E+00 
1.29952656173000E+00 1.32174089802000E+00 1.34433495738000E+00 1.36731523065000E+00 
1.39068831962000E+00 1.41446093893000E+00 1.43863991799000E+00 1.46323220295000E+00 
1.48824485870000E+00 1.51368507089000E+00 1.53956014800000E+00 1.56587752345000E+00 
1.59264475770000E+00 1.61986954046000E+00 1.64755969289000E+00 1.67572316984000E+00 
1.70436806211000E+00 1.73350259884000E+00 1.76313514981000E+00 1.79327422789000E+00 
1.82392849145000E+00 1.85510674686000E+00 1.88681795103000E+00 1.91907121398000E+00 
1.95187580145000E+00 1.98524113756000E+00 2.01917680752000E+00 2.05369256041000E+00 
2.08879831191000E+00 2.12450414725000E+00 2.16082032401000E+00 2.19775727512000E+00 
2.23532561187000E+00 2.27353612690000E+00 2.31239979736000E+00 2.35192778802000E+00 
2.39213145453000E+00 2.43302234660000E+00 2.47461221140000E+00 2.51691299690000E+00 
2.55993685529000E+00 2.60369614650000E+00 2.64820344172000E+00 2.69347152703000E+00 
2.73951340709000E+00 2.78634230883000E+00 2.83397168529000E+00 2.88241521947000E+00 
2.93168682825000E+00 2.98180066643000E+00 3.03277113073000E+00 3.08461286398000E+00 
3.13734075931000E+00 3.19096996442000E+00 3.24551588595000E+00 3.30099419388000E+00 
3.35742082606000E+00 3.41481199277000E+00 3.47318418137000E+00 3.53255416108000E+00 
3.59293898773000E+00 3.65435600872000E+00 3.71682286796000E+00 3.78035751099000E+00 
3.84497819007000E+00 3.91070346947000E+00 3.97755223080000E+00 4.04554367841000E+00 
4.11469734492000E+00 4.18503309685000E+00 4.25657114030000E+00 4.32933202677000E+00 
4.40333665904000E+00 4.47860629721000E+00 4.55516256481000E+00 4.63302745495000E+00 
4.71222333673000E+00 4.79277296157000E+00 4.87469946984000E+00 4.95802639743000E+00 
5.04277768255000E+00 5.12897767261000E+00 5.21665113120000E+00 5.30582324521000E+00 
5.39651963205000E+00 5.48876634706000E+00 5.58258989091000E+00 5.67801721730000E+00 
5.77507574066000E+00 5.87379334402000E+00 5.97419838704000E+00 6.07631971414000E+00 
6.18018666281000E+00 6.28582907201000E+00 6.39327729075000E+00 6.50256218684000E+00 
6.61371515571000E+00 6.72676812945000E+00 6.84175358600000E+00 6.95870455846000E+00 
7.07765464457000E+00 7.19863801640000E+00 7.32168943012000E+00 7.44684423602000E+00 
7.57413838867000E+00 7.70360845720000E+00 7.83529163586000E+00 7.96922575469000E+00 
8.10544929035000E+00 8.24400137724000E+00 8.38492181869000E+00 8.52825109842000E+00 
8.67403039215000E+00 8.82230157946000E+00 8.97310725579000E+00 9.12649074468000E+00 
9.28249611025000E+00 9.44116816983000E+00 9.60255250682000E+00 9.76669548382000E+00 
9.93364425593000E+00 1.01034467843000E+01 1.02761518499000E+01 1.04518090676000E+01 
1.06304689003000E+01 1.08121826734000E+01 1.09970025900000E+01 1.11849817450000E+01 
1.13761741414000E+01 1.15706347049000E+01 1.17684193004000E+01 1.19695847476000E+01 
1.21741888373000E+01 1.23822903483000E+01 1.25939490643000E+01 1.28092257906000E+01 
1.30281823721000E+01 1.32508817108000E+01 1.34773877839000E+01 1.37077656622000E+01 
1.39420815288000E+01 1.41804026981000E+01 1.44227976352000E+01 1.46693359755000E+01 
1.49200885446000E+01 1.51751273789000E+01 1.54345257462000E+01 1.56983581665000E+01 
1.59667004339000E+01 1.62396296378000E+01 1.65172241856000E+01 1.67995638247000E+01 
1.70867296660000E+01 1.73788042065000E+01 1.76758713536000E+01 1.79780164491000E+01 
1.82853262933000E+01 1.85978891703000E+01 1.89157948736000E+01 1.92391347312000E+01 
1.95680016323000E+01 1.99024900542000E+01 2.02426960889000E+01 2.05887174709000E+01 
2.09406536055000E+01 2.12986055972000E+01 2.16626762786000E+01 2.20329702402000E+01 
2.24095938603000E+01 2.27926553355000E+01 2.31822647121000E+01 2.35785339172000E+01 
2.39815767914000E+01 2.43915091209000E+01 2.48084486716000E+01 2.52325152220000E+01 
2.56638305982000E+01 2.61025187088000E+01 2.65487055805000E+01 2.70025193940000E+01 
2.74640905213000E+01 2.79335515628000E+01 2.84110373857000E+01 2.88966851623000E+01 
2.93906344099000E+01 2.98930270305000E+01 3.04040073519000E+01 3.09237221686000E+01 
3.14523207849000E+01 3.19899550568000E+01 3.25367794362000E+01 3.30929510152000E+01 
3.36586295712000E+01 3.42339776127000E+01 3.48191604259000E+01 3.54143461226000E+01 
3.60197056882000E+01 3.66354130307000E+01 3.72616450309000E+01 3.78985815932000E+01 
3.85464056971000E+01 3.92053034500000E+01 3.98754641404000E+01 4.05570802924000E+01 
4.12503477214000E+01 4.19554655895000E+01 4.26726364635000E+01 4.34020663726000E+01 
4.41439648681000E+01 4.48985450830000E+01 4.56660237935000E+01 4.64466214815000E+01 
4.72405623975000E+01 4.80480746255000E+01 4.88693901480000E+01 4.97047449131000E+01 
5.05543789022000E+01 5.14185361985000E+01 5.22974650577000E+01 5.31914179792000E+01 
5.41006517782000E+01 5.50254276601000E+01 5.59660112951000E+01 5.69226728946000E+01 
5.78956872890000E+01 5.88853340065000E+01 5.98918973536000E+01 6.09156664962000E+01 
6.19569355436000E+01 6.30160036321000E+01 6.40931750116000E+01 6.51887591324000E+01 
6.63030707348000E+01 6.74364299389000E+01 6.85891623369000E+01 6.97615990864000E+01 
7.09540770059000E+01 7.21669386712000E+01 7.34005325140000E+01 7.46552129219000E+01 
7.59313403403000E+01 7.72292813760000E+01 7.85494089022000E+01 7.98921021661000E+01 
8.12577468975000E+01 8.26467354196000E+01 8.40594667621000E+01 8.54963467752000E+01 
8.69577882468000E+01 8.84442110207000E+01 8.99560421176000E+01 9.14937158570000E+01 
9.30576739831000E+01 9.46483657906000E+01 9.62662482546000E+01 9.79117861614000E+01 
9.95854522421000E+01 1.01287727309000E+02 1.03019100392000E+02 1.04780068882000E+02 
1.06571138670000E+02 1.08392824297000E+02 1.10245649097000E+02 1.12130145351000E+02 
1.14046854439000E+02 1.15996326994000E+02 1.17979123061000E+02 1.19995812260000E+02 
1.22046973946000E+02 1.24133197379000E+02 1.26255081889000E+02 1.28413237054000E+02 
1.30608282870000E+02 1.32840849930000E+02 1.35111579608000E+02 1.37421124241000E+02 
1.39770147317000E+02 1.42159323664000E+02 1.44589339645000E+02 1.47060893359000E+02 
1.49574694834000E+02 1.52131466237000E+02 1.54731942079000E+02 1.57376869427000E+02 
1.60067008115000E+02 1.62803130971000E+02 1.65586024028000E+02 1.68416486758000E+02 
1.71295332298000E+02 1.74223387685000E+02 1.77201494092000E+02 1.80230507072000E+02 
1.83311296802000E+02 1.86444748332000E+02 1.89631761844000E+02 1.92873252903000E+02 
1.96170152728000E+02 1.99523408455000E+02 2.02933983408000E+02 2.06402857380000E+02 
2.09931026912000E+02 2.13519505578000E+02 2.17169324278000E+02 2.20881531536000E+02 
2.24657193795000E+02 2.28497395732000E+02 2.32403240561000E+02 2.36375850357000E+02 
2.40416366373000E+02 2.44525949371000E+02 2.48705779955000E+02 2.52957058910000E+02 
2.57281007545000E+02 2.61678868047000E+02 2.66151903837000E+02 2.70701399931000E+02 
2.75328663312000E+02 2.80035023302000E+02 2.84821831948000E+02 2.89690464408000E+02 
2.94642319344000E+02 2.99678819330000E+02 3.04801411254000E+02 3.10011566738000E+02 
3.15310782558000E+02 3.20700581077000E+02 3.26182510680000E+02 3.31758146219000E+02 
3.37429089465000E+02 3.43196969572000E+02 3.49063443540000E+02 3.55030196693000E+02 
3.61098943164000E+02 3.67271426386000E+02 3.73549419595000E+02 3.79934726335000E+02 
3.86429180983000E+02 3.93034649270000E+02 3.99753028818000E+02 4.06586249688000E+02 
4.13536274933000E+02 4.20605101159000E+02 4.27794759105000E+02 4.35107314219000E+02 
4.42544867257000E+02 4.50109554884000E+02 4.57803550290000E+02 4.65629063808000E+02 
4.73588343559000E+02 4.81683676089000E+02 4.89917387031000E+02 4.98291841771000E+02 
5.06809446126000E+02 5.15472647041000E+02 5.24283933285000E+02 5.33245836170000E+02 
5.42360930277000E+02 5.51631834198000E+02 5.61061211282000E+02 5.70651770407000E+02 
5.80406266756000E+02 5.90327502607000E+02 6.00418328138000E+02 6.10681642249000E+02 
6.21120393391000E+02 6.31737580416000E+02 6.42536253435000E+02 6.53519514698000E+02 
6.64690519484000E+02 6.76052477007000E+02 6.87608651337000E+02 6.99362362339000E+02 
7.11316986627000E+02 7.23475958533000E+02 7.35842771095000E+02 7.48420977058000E+02 
7.61214189897000E+02 7.74226084856000E+02 7.87460400000000E+02 8.00920937291000E+02 
8.14611563681000E+02 8.28536212222000E+02 8.42698883197000E+02 8.57103645267000E+02 
8.71754636641000E+02 8.86656066265000E+02 9.01812215032000E+02 
</PP_R>
    <PP_RAB>
7.37065767668000E-07 7.49664878307000E-07 7.62479353159000E-07 7.75512873575000E-07 
7.88769183832000E-07 8.02252092213000E-07 8.15965472095000E-07 8.29913263068000E-07 
8.44099472062000E-07 8.58528174501000E-07 8.73203515470000E-07 8.88129710912000E-07 
9.03311048835000E-07 9.18751890541000E-07 9.34456671888000E-07 9.50429904553000E-07 
9.66676177339000E-07 9.83200157484000E-07 1.00000659201000E-06 1.01710030908000E-06 
1.03448621938000E-06 1.05216931756000E-06 1.07015468362000E-06 1.08844748441000E-06 
1.10705297511000E-06 1.12597650070000E-06 1.14522349755000E-06 1.16479949495000E-06 
1.18471011671000E-06 1.20496108276000E-06 1.22555821081000E-06 1.24650741801000E-06 
1.26781472268000E-06 1.28948624599000E-06 1.31152821374000E-06 1.33394695816000E-06 
1.35674891974000E-06 1.37994064903000E-06 1.40352880856000E-06 1.42752017476000E-06 
1.45192163988000E-06 1.47674021399000E-06 1.50198302699000E-06 1.52765733065000E-06 
1.55377050069000E-06 1.58033003894000E-06 1.60734357543000E-06 1.63481887062000E-06 
1.66276381764000E-06 1.69118644452000E-06 1.72009491655000E-06 1.74949753856000E-06 
1.77940275736000E-06 1.80981916414000E-06 1.84075549694000E-06 1.87222064318000E-06 
1.90422364217000E-06 1.93677368778000E-06 1.96988013098000E-06 2.00355248263000E-06 
2.03780041614000E-06 2.07263377027000E-06 2.10806255197000E-06 2.14409693926000E-06 
2.18074728411000E-06 2.21802411545000E-06 2.25593814220000E-06 2.29450025632000E-06 
2.33372153597000E-06 2.37361324865000E-06 2.41418685449000E-06 2.45545400949000E-06 
2.49742656892000E-06 2.54011659067000E-06 2.58353633877000E-06 2.62769828686000E-06 
2.67261512183000E-06 2.71829974740000E-06 2.76476528788000E-06 2.81202509193000E-06 
2.86009273638000E-06 2.90898203012000E-06 2.95870701811000E-06 3.00928198538000E-06 
3.06072146112000E-06 3.11304022292000E-06 3.16625330093000E-06 3.22037598224000E-06 
3.27542381526000E-06 3.33141261415000E-06 3.38835846343000E-06 3.44627772252000E-06 
3.50518703051000E-06 3.56510331091000E-06 3.62604377651000E-06 3.68802593431000E-06 
3.75106759060000E-06 3.81518685602000E-06 3.88040215080000E-06 3.94673221002000E-06 
4.01419608904000E-06 4.08281316891000E-06 4.15260316201000E-06 4.22358611763000E-06 
4.29578242782000E-06 4.36921283317000E-06 4.44389842882000E-06 4.51986067050000E-06 
4.59712138068000E-06 4.67570275488000E-06 4.75562736800000E-06 4.83691818084000E-06 
4.91959854667000E-06 5.00369221797000E-06 5.08922335321000E-06 5.17621652385000E-06 
5.26469672132000E-06 5.35468936429000E-06 5.44622030590000E-06 5.53931584121000E-06 
5.63400271477000E-06 5.73030812829000E-06 5.82825974845000E-06 5.92788571485000E-06 
6.02921464810000E-06 6.13227565806000E-06 6.23709835215000E-06 6.34371284390000E-06 
6.45214976159000E-06 6.56244025706000E-06 6.67461601462000E-06 6.78870926021000E-06 
6.90475277060000E-06 7.02277988284000E-06 7.14282450385000E-06 7.26492112012000E-06 
7.38910480765000E-06 7.51541124200000E-06 7.64387670857000E-06 7.77453811301000E-06 
7.90743299180000E-06 8.04259952308000E-06 8.18007653756000E-06 8.31990352975000E-06 
8.46212066922000E-06 8.60676881221000E-06 8.75388951333000E-06 8.90352503751000E-06 
9.05571837215000E-06 9.21051323943000E-06 9.36795410895000E-06 9.52808621039000E-06 
9.69095554663000E-06 9.85660890688000E-06 1.00250938801000E-05 1.01964588688000E-05 
1.03707531029000E-05 1.05480266536000E-05 1.07283304483000E-05 1.09117162847000E-05 
1.10982368461000E-05 1.12879457161000E-05 1.14808973945000E-05 1.16771473126000E-05 
1.18767518491000E-05 1.20797683466000E-05 1.22862551278000E-05 1.24962715123000E-05 
1.27098778339000E-05 1.29271354574000E-05 1.31481067967000E-05 1.33728553327000E-05 
1.36014456313000E-05 1.38339433620000E-05 1.40704153169000E-05 1.43109294299000E-05 
1.45555547960000E-05 1.48043616913000E-05 1.50574215933000E-05 1.53148072010000E-05 
1.55765924566000E-05 1.58428525657000E-05 1.61136640198000E-05 1.63891046178000E-05 
1.66692534884000E-05 1.69541911130000E-05 1.72439993485000E-05 1.75387614514000E-05 
1.78385621011000E-05 1.81434874245000E-05 1.84536250207000E-05 1.87690639863000E-05 
1.90898949408000E-05 1.94162100527000E-05 1.97481030660000E-05 2.00856693272000E-05 
2.04290058125000E-05 2.07782111559000E-05 2.11333856773000E-05 2.14946314114000E-05 
2.18620521371000E-05 2.22357534075000E-05 2.26158425794000E-05 2.30024288454000E-05 
2.33956232640000E-05 2.37955387924000E-05 2.42022903187000E-05 2.46159946946000E-05 
2.50367707695000E-05 2.54647394242000E-05 2.59000236057000E-05 2.63427483628000E-05 
2.67930408818000E-05 2.72510305229000E-05 2.77168488578000E-05 2.81906297070000E-05 
2.86725091786000E-05 2.91626257073000E-05 2.96611200940000E-05 3.01681355466000E-05 
3.06838177207000E-05 3.12083147619000E-05 3.17417773480000E-05 3.22843587325000E-05 
3.28362147885000E-05 3.33975040537000E-05 3.39683877754000E-05 3.45490299577000E-05 
3.51395974078000E-05 3.57402597841000E-05 3.63511896456000E-05 3.69725625003000E-05 
3.76045568569000E-05 3.82473542749000E-05 3.89011394177000E-05 3.95661001051000E-05 
4.02424273674000E-05 4.09303155004000E-05 4.16299621210000E-05 4.23415682241000E-05 
4.30653382404000E-05 4.38014800950000E-05 4.45502052673000E-05 4.53117288515000E-05 
4.60862696186000E-05 4.68740500791000E-05 4.76752965471000E-05 4.84902392053000E-05 
4.93191121709000E-05 5.01621535630000E-05 5.10196055712000E-05 5.18917145248000E-05 
5.27787309638000E-05 5.36809097109000E-05 5.45985099446000E-05 5.55317952737000E-05 
5.64810338130000E-05 5.74464982603000E-05 5.84284659750000E-05 5.94272190572000E-05 
6.04430444296000E-05 6.14762339190000E-05 6.25270843408000E-05 6.35958975839000E-05 
6.46829806978000E-05 6.57886459804000E-05 6.69132110679000E-05 6.80569990261000E-05 
6.92203384432000E-05 7.04035635241000E-05 7.16070141863000E-05 7.28310361581000E-05 
7.40759810773000E-05 7.53422065923000E-05 7.66300764654000E-05 7.79399606766000E-05 
7.92722355303000E-05 8.06272837633000E-05 8.20054946547000E-05 8.34072641379000E-05 
8.48329949140000E-05 8.62830965680000E-05 8.77579856859000E-05 8.92580859750000E-05 
9.07838283849000E-05 9.23356512320000E-05 9.39140003250000E-05 9.55193290929000E-05 
9.71520987156000E-05 9.88127782564000E-05 1.00501844796000E-04 1.02219783571000E-04 
1.03967088112000E-04 1.05744260386000E-04 1.07551810939000E-04 1.09390259046000E-04 
1.11260132858000E-04 1.13161969553000E-04 1.15096315492000E-04 1.17063726375000E-04 
1.19064767402000E-04 1.21100013432000E-04 1.23170049153000E-04 1.25275469246000E-04 
1.27416878556000E-04 1.29594892270000E-04 1.31810136089000E-04 1.34063246410000E-04 
1.36354870507000E-04 1.38685666719000E-04 1.41056304640000E-04 1.43467465308000E-04 
1.45919841402000E-04 1.48414137443000E-04 1.50951069994000E-04 1.53531367866000E-04 
1.56155772330000E-04 1.58825037324000E-04 1.61539929679000E-04 1.64301229330000E-04 
1.67109729544000E-04 1.69966237150000E-04 1.72871572767000E-04 1.75826571041000E-04 
1.78832080887000E-04 1.81888965730000E-04 1.84998103752000E-04 1.88160388150000E-04 
1.91376727386000E-04 1.94648045453000E-04 1.97975282136000E-04 2.01359393288000E-04 
2.04801351096000E-04 2.08302144369000E-04 2.11862778818000E-04 2.15484277343000E-04 
2.19167680332000E-04 2.22914045954000E-04 2.26724450467000E-04 2.30599988528000E-04 
2.34541773504000E-04 2.38550937792000E-04 2.42628633149000E-04 2.46776031017000E-04 
2.50994322863000E-04 2.55284720521000E-04 2.59648456540000E-04 2.64086784535000E-04 