<UPF version="2.0.1">
  <PP_INFO>
Generated using Vanderbilt code, version   7  3  6
Author: kfg        Generation date:    8    4   15
Automatically converted from original USPP format to UPF.v1.

Futher converted to UPF.v2 format.
Convert Q_IJ to Q_IJL use the same routine as 'upflib/upf_to_internal.f90' of QE.
The conversion is done by using PseudoPotentialIO.jl package.
Converted by: JYU on 2024-04-30

0        The Pseudo was generated with a Non-Relativistic Calculation
1.40000000000E+00    Local Potential cutoff radius
nl pn  l   occ               Rcut            Rcut US             E pseu
1S  1  0  2.00      0.00000000000      1.30000000000     -4.06650464100
2S  2  0  0.55      0.00000000000      1.30000000000     -0.37427544700
2P  2  1  0.00      0.00000000000      2.00100000000     -0.22854466000
</PP_INFO>
  <PP_HEADER element="Li" pseudo_type="US" relativistic="scalar" is_ultrasoft="T" is_paw="F" is_coulomb="F" has_so="F" has_wfc="F" has_gipaw="F" core_correction="F" functional="PBE" z_valence="3.0" total_psenergy="-14.2010030654" wfc_cutoff="0.0" rho_cutoff="0.0" l_max="1" mesh_size="751" number_of_wfc="3" number_of_proj="5"/>
  <PP_MESH>
    <PP_R>
0.00000000000000E+00 5.10846319546000E-06 1.03027809112000E-05 1.55843960465000E-05 
2.09547757508000E-05 2.64154118307000E-05 3.19678211647000E-05 3.76135461243000E-05 
4.33541550030000E-05 4.91912424510000E-05 5.51264299192000E-05 6.11613661089000E-05 
6.72977274301000E-05 7.35372184670000E-05 7.98815724517000E-05 8.63325517456000E-05 
9.28919483287000E-05 9.95615842980000E-05 1.06343312373000E-04 1.13239016411000E-04 
1.20250611928000E-04 1.27380046637000E-04 1.34629300981000E-04 1.42000388688000E-04 
1.49495357331000E-04 1.57116288893000E-04 1.64865300349000E-04 1.72744544251000E-04 
1.80756209330000E-04 1.88902521099000E-04 1.97185742474000E-04 2.05608174405000E-04 
2.14172156510000E-04 2.22880067727000E-04 2.31734326977000E-04 2.40737393834000E-04 
2.49891769206000E-04 2.59199996036000E-04 2.68664660001000E-04 2.78288390236000E-04 
2.88073860060000E-04 2.98023787723000E-04 3.08140937158000E-04 3.18428118749000E-04 
3.28888190112000E-04 3.39524056891000E-04 3.50338673561000E-04 3.61335044251000E-04 
3.72516223580000E-04 3.83885317504000E-04 3.95445484175000E-04 4.07199934828000E-04 
4.19151934661000E-04 4.31304803753000E-04 4.43661917977000E-04 4.56226709946000E-04 
4.69002669960000E-04 4.81993346979000E-04 4.95202349607000E-04 5.08633347098000E-04 
5.22290070371000E-04 5.36176313046000E-04 5.50295932504000E-04 5.64652850951000E-04 
5.79251056513000E-04 5.94094604341000E-04 6.09187617738000E-04 6.24534289304000E-04 
6.40138882103000E-04 6.56005730845000E-04 6.72139243088000E-04 6.88543900468000E-04 
7.05224259940000E-04 7.22184955045000E-04 7.39430697195000E-04 7.56966276985000E-04 
7.74796565523000E-04 7.92926515781000E-04 8.11361163972000E-04 8.30105630952000E-04 
8.49165123637000E-04 8.68544936453000E-04 8.88250452805000E-04 9.08287146576000E-04 
9.28660583643000E-04 9.49376423424000E-04 9.70440420452000E-04 9.91858425974000E-04 
1.01363638957000E-03 1.03578036082000E-03 1.05829649097000E-03 1.08119103464000E-03 
1.10447035157000E-03 1.12814090840000E-03 1.15220928042000E-03 1.17668215346000E-03 
1.20156632569000E-03 1.22686870953000E-03 1.25259633360000E-03 1.27875634462000E-03 
1.30535600943000E-03 1.33240271699000E-03 1.35990398045000E-03 1.38786743924000E-03 
1.41630086115000E-03 1.44521214454000E-03 1.47460932052000E-03 1.50450055514000E-03 
1.53489415174000E-03 1.56579855315000E-03 1.59722234415000E-03 1.62917425376000E-03 
1.66166315772000E-03 1.69469808094000E-03 1.72828819999000E-03 1.76244284567000E-03 
1.79717150562000E-03 1.83248382690000E-03 1.86838961872000E-03 1.90489885514000E-03 
1.94202167784000E-03 1.97976839897000E-03 2.01814950397000E-03 2.05717565450000E-03 
2.09685769141000E-03 2.13720663774000E-03 2.17823370179000E-03 2.21995028024000E-03 
2.26236796128000E-03 2.30549852789000E-03 2.34935396105000E-03 2.39394644311000E-03 
2.43928836116000E-03 2.48539231046000E-03 2.53227109796000E-03 2.57993774586000E-03 
2.62840549518000E-03 2.67768780952000E-03 2.72779837871000E-03 2.77875112269000E-03 
2.83056019531000E-03 2.88323998833000E-03 2.93680513535000E-03 2.99127051593000E-03 
3.04665125969000E-03 3.10296275053000E-03 3.16022063089000E-03 3.21844080610000E-03 
3.27763944881000E-03 3.33783300347000E-03 3.39903819090000E-03 3.46127201292000E-03 
3.52455175712000E-03 3.58889500161000E-03 3.65431961993000E-03 3.72084378599000E-03 
3.78848597917000E-03 3.85726498940000E-03 3.92719992239000E-03 3.99831020498000E-03 
4.07061559046000E-03 4.14413616415000E-03 4.21889234888000E-03 4.29490491076000E-03 
4.37219496486000E-03 4.45078398115000E-03 4.53069379041000E-03 4.61194659032000E-03 
4.69456495164000E-03 4.77857182443000E-03 4.86399054448000E-03 4.95084483977000E-03 
5.03915883703000E-03 5.12895706851000E-03 5.22026447874000E-03 5.31310643146000E-03 
5.40750871672000E-03 5.50349755798000E-03 5.60109961941000E-03 5.70034201334000E-03 
5.80125230773000E-03 5.90385853386000E-03 6.00818919413000E-03 6.11427326994000E-03 
6.22214022979000E-03 6.33182003739000E-03 6.44334316008000E-03 6.55674057722000E-03 
6.67204378881000E-03 6.78928482427000E-03 6.90849625131000E-03 7.02971118498000E-03 
7.15296329687000E-03 7.27828682447000E-03 7.40571658069000E-03 7.53528796348000E-03 
7.66703696575000E-03 7.80100018528000E-03 7.93721483493000E-03 8.07571875299000E-03 
8.21655041365000E-03 8.35974893773000E-03 8.50535410352000E-03 8.65340635783000E-03 
8.80394682725000E-03 8.95701732952000E-03 9.11266038523000E-03 9.27091922956000E-03 
9.43183782431000E-03 9.59546087013000E-03 9.76183381892000E-03 9.93100288645000E-03 
1.01030150652000E-02 1.02779181375000E-02 1.04557606886000E-02 1.06365921204000E-02 
1.08204626649000E-02 1.10074233986000E-02 1.11975262561000E-02 1.13908240451000E-02 
1.15873704606000E-02 1.17872201000000E-02 1.19904284786000E-02 1.21970520442000E-02 
1.24071481938000E-02 1.26207752887000E-02 1.28379926712000E-02 1.30588606807000E-02 
1.32834406709000E-02 1.35117950267000E-02 1.37439871812000E-02 1.39800816338000E-02 
1.42201439678000E-02 1.44642408686000E-02 1.47124401427000E-02 1.49648107357000E-02 
1.52214227523000E-02 1.54823474752000E-02 1.57476573852000E-02 1.60174261812000E-02 
1.62917288008000E-02 1.65706414408000E-02 1.68542415787000E-02 1.71426079943000E-02 
1.74358207911000E-02 1.77339614191000E-02 1.80371126970000E-02 1.83453588353000E-02 
1.86587854602000E-02 1.89774796364000E-02 1.93015298923000E-02 1.96310262438000E-02 
1.99660602199000E-02 2.03067248877000E-02 2.06531148784000E-02 2.10053264137000E-02 
2.13634573325000E-02 2.17276071178000E-02 2.20978769247000E-02 2.24743696084000E-02 
2.28571897524000E-02 2.32464436983000E-02 2.36422395746000E-02 2.40446873271000E-02 
2.44538987496000E-02 2.48699875144000E-02 2.52930692045000E-02 2.57232613452000E-02 
2.61606834372000E-02 2.66054569893000E-02 2.70577055528000E-02 2.75175547550000E-02 
2.79851323348000E-02 2.84605681779000E-02 2.89439943529000E-02 2.94355451479000E-02 
2.99353571080000E-02 3.04435690729000E-02 3.09603222161000E-02 3.14857600833000E-02 
3.20200286330000E-02 3.25632762763000E-02 3.31156539191000E-02 3.36773150030000E-02 
3.42484155487000E-02 3.48291141988000E-02 3.54195722623000E-02 3.60199537590000E-02 
3.66304254656000E-02 3.72511569614000E-02 3.78823206757000E-02 3.85240919360000E-02 
3.91766490161000E-02 3.98401731861000E-02 4.05148487625000E-02 4.12008631595000E-02 
4.18984069412000E-02 4.26076738741000E-02 4.33288609814000E-02 4.40621685975000E-02 
4.48078004237000E-02 4.55659635847000E-02 4.63368686863000E-02 4.71207298737000E-02 
4.79177648911000E-02 4.87281951425000E-02 4.95522457524000E-02 5.03901456291000E-02 
5.12421275279000E-02 5.21084281160000E-02 5.29892880380000E-02 5.38849519829000E-02 
5.47956687520000E-02 5.57216913280000E-02 5.66632769453000E-02 5.76206871616000E-02 
5.85941879303000E-02 5.95840496746000E-02 6.05905473624000E-02 6.16139605828000E-02 
6.26545736240000E-02 6.37126755517000E-02 6.47885602900000E-02 6.58825267027000E-02 
6.69948786764000E-02 6.81259252048000E-02 6.92759804748000E-02 7.04453639537000E-02 
7.16344004777000E-02 7.28434203424000E-02 7.40727593943000E-02 7.53227591245000E-02 
7.65937667631000E-02 7.78861353761000E-02 7.92002239629000E-02 8.05363975567000E-02 
8.18950273254000E-02 8.32764906748000E-02 8.46811713537000E-02 8.61094595601000E-02 
8.75617520501000E-02 8.90384522474000E-02 9.05399703562000E-02 9.20667234743000E-02 
9.36191357098000E-02 9.51976382982000E-02 9.68026697226000E-02 9.84346758355000E-02 
1.00094109982000E-01 1.01781433127000E-01 1.03497113983000E-01 1.05241629138000E-01 
1.07015463191000E-01 1.08819108885000E-01 1.10653067244000E-01 1.12517847714000E-01 
1.14413968300000E-01 1.16341955715000E-01 1.18302345524000E-01 1.20295682291000E-01 
1.22322519735000E-01 1.24383420879000E-01 1.26478958208000E-01 1.28609713830000E-01 
1.30776279634000E-01 1.32979257460000E-01 1.35219259258000E-01 1.37496907267000E-01 
1.39812834181000E-01 1.42167683328000E-01 1.44562108847000E-01 1.46996775873000E-01 
1.49472360717000E-01 1.51989551058000E-01 1.54549046132000E-01 1.57151556925000E-01 
1.59797806375000E-01 1.62488529567000E-01 1.65224473942000E-01 1.68006399502000E-01 
1.70835079022000E-01 1.73711298265000E-01 1.76635856199000E-01 1.79609565219000E-01 
1.82633251376000E-01 1.85707754601000E-01 1.88833928944000E-01 1.92012642805000E-01 
1.95244779181000E-01 1.98531235910000E-01 2.01872925916000E-01 2.05270777468000E-01 
2.08725734436000E-01 2.12238756552000E-01 2.15810819679000E-01 2.19442916078000E-01 
2.23136054690000E-01 2.26891261409000E-01 2.30709579374000E-01 2.34592069251000E-01 
2.38539809536000E-01 2.42553896849000E-01 2.46635446239000E-01 2.50785591496000E-01 
2.55005485466000E-01 2.59296300369000E-01 2.63659228124000E-01 2.68095480684000E-01 
2.72606290371000E-01 2.77192910215000E-01 2.81856614308000E-01 2.86598698153000E-01 
2.91420479026000E-01 2.96323296341000E-01 3.01308512023000E-01 3.06377510888000E-01 
3.11531701022000E-01 3.16772514178000E-01 3.22101406172000E-01 3.27519857285000E-01 
3.33029372678000E-01 3.38631482807000E-01 3.44327743849000E-01 3.50119738137000E-01 
3.56009074594000E-01 3.61997389185000E-01 3.68086345370000E-01 3.74277634564000E-01 
3.80572976610000E-01 3.86974120254000E-01 3.93482843633000E-01 4.00100954768000E-01 
4.06830292065000E-01 4.13672724828000E-01 4.20630153776000E-01 4.27704511574000E-01 
4.34897763366000E-01 4.42211907325000E-01 4.49648975203000E-01 4.57211032902000E-01 
4.64900181040000E-01 4.72718555543000E-01 4.80668328230000E-01 4.88751707424000E-01 
4.96970938559000E-01 5.05328304808000E-01 5.13826127715000E-01 5.22466767842000E-01 
5.31252625421000E-01 5.40186141026000E-01 5.49269796245000E-01 5.58506114375000E-01 
5.67897661119000E-01 5.77447045301000E-01 5.87156919588000E-01 5.97029981230000E-01 
6.07068972808000E-01 6.17276682996000E-01 6.27655947333000E-01 6.38209649016000E-01 
6.48940719696000E-01 6.59852140296000E-01 6.70946941835000E-01 6.82228206274000E-01 
6.93699067371000E-01 7.05362711549000E-01 7.17222378785000E-01 7.29281363506000E-01 
7.41543015509000E-01 7.54010740886000E-01 7.66688002976000E-01 7.79578323320000E-01 
7.92685282647000E-01 8.06012521863000E-01 8.19563743064000E-01 8.33342710566000E-01 
8.47353251947000E-01 8.61599259117000E-01 8.76084689389000E-01 8.90813566589000E-01 
9.05789982164000E-01 9.21018096329000E-01 9.36502139210000E-01 9.52246412033000E-01 
9.68255288305000E-01 9.84533215042000E-01 1.00108471399000E+00 1.01791438290000E+00 
1.03502689679000E+00 1.05242700924000E+00 1.07011955373000E+00 1.08810944497000E+00 
1.10640168026000E+00 1.12500134090000E+00 1.14391359358000E+00 1.16314369183000E+00 
1.18269697747000E+00 1.20257888208000E+00 1.22279492855000E+00 1.24335073258000E+00 
1.26425200424000E+00 1.28550454958000E+00 1.30711427221000E+00 1.32908717499000E+00 
1.35142936163000E+00 1.37414703843000E+00 1.39724651603000E+00 1.42073421107000E+00 
1.44461664807000E+00 1.46890046121000E+00 1.49359239612000E+00 1.51869931186000E+00 
1.54422818271000E+00 1.57018610021000E+00 1.59658027504000E+00 1.62341803909000E+00 
1.65070684748000E+00 1.67845428059000E+00 1.70666804623000E+00 1.73535598174000E+00 
1.76452605617000E+00 1.79418637251000E+00 1.82434516992000E+00 1.85501082605000E+00 
1.88619185932000E+00 1.91789693135000E+00 1.95013484928000E+00 1.98291456832000E+00 
2.01624519415000E+00 2.05013598548000E+00 2.08459635666000E+00 2.11963588021000E+00 
2.15526428958000E+00 2.19149148176000E+00 2.22832752010000E+00 2.26578263708000E+00 
2.30386723712000E+00 2.34259189954000E+00 2.38196738143000E+00 2.42200462067000E+00 
2.46271473899000E+00 2.50410904500000E+00 2.54619903740000E+00 2.58899640811000E+00 
2.63251304558000E+00 2.67676103803000E+00 2.72175267687000E+00 2.76750046005000E+00 
2.81401709559000E+00 2.86131550507000E+00 2.90940882725000E+00 2.95831042169000E+00 
3.00803387249000E+00 3.05859299203000E+00 3.11000182483000E+00 3.16227465146000E+00 
3.21542599249000E+00 3.26947061252000E+00 3.32442352428000E+00 3.38029999284000E+00 
3.43711553979000E+00 3.49488594759000E+00 3.55362726395000E+00 3.61335580628000E+00 
3.67408816623000E+00 3.73584121428000E+00 3.79863210446000E+00 3.86247827909000E+00 
3.92739747362000E+00 3.99340772158000E+00 4.06052735958000E+00 4.12877503239000E+00 
4.19816969814000E+00 4.26873063357000E+00 4.34047743939000E+00 4.41343004573000E+00 
4.48760871768000E+00 4.56303406090000E+00 4.63972702735000E+00 4.71770892114000E+00 
4.79700140439000E+00 4.87762650332000E+00 4.95960661430000E+00 5.04296451011000E+00 
5.12772334626000E+00 5.21390666741000E+00 5.30153841393000E+00 5.39064292853000E+00 
5.48124496304000E+00 5.57336968528000E+00 5.66704268604000E+00 5.76228998620000E+00 
5.85913804395000E+00 5.95761376216000E+00 6.05774449583000E+00 6.15955805968000E+00 
6.26308273593000E+00 6.36834728209000E+00 6.47538093899000E+00 6.58421343889000E+00 
6.69487501374000E+00 6.80739640358000E+00 6.92180886507000E+00 7.03814418019000E+00 
7.15643466505000E+00 7.27671317889000E+00 7.39901313316000E+00 7.52336850087000E+00 
7.64981382598000E+00 7.77838423299000E+00 7.90911543675000E+00 8.04204375230000E+00 
8.17720610505000E+00 8.31464004095000E+00 8.45438373698000E+00 8.59647601174000E+00 
8.74095633622000E+00 8.88786484476000E+00 9.03724234623000E+00 9.18913033535000E+00 
9.34357100419000E+00 9.50060725393000E+00 9.66028270678000E+00 9.82264171803000E+00 
9.98772938848000E+00 1.01555915769000E+01 1.03262749126000E+01 1.04998268089000E+01 
1.06762954757000E+01 1.08557299333000E+01 1.10381800256000E+01 1.12236964344000E+01 
1.14123306933000E+01 1.16041352019000E+01 1.17991632404000E+01 1.19974689846000E+01 
1.21991075206000E+01 1.24041348604000E+01 1.26126079575000E+01 1.28245847224000E+01 
1.30401240387000E+01 1.32592857801000E+01 1.34821308260000E+01 1.37087210795000E+01 
1.39391194836000E+01 1.41733900394000E+01 1.44115978235000E+01 1.46538090064000E+01 
1.49000908704000E+01 1.51505118289000E+01 1.54051414446000E+01 1.56640504499000E+01 
1.59273107654000E+01 1.61949955207000E+01 1.64671790745000E+01 1.67439370350000E+01 
1.70253462813000E+01 1.73114849843000E+01 1.76024326289000E+01 1.78982700357000E+01 
1.81990793837000E+01 1.85049442330000E+01 1.88159495481000E+01 1.91321817212000E+01 
1.94537285966000E+01 1.97806794951000E+01 2.01131252385000E+01 2.04511581748000E+01 
2.07948722043000E+01 2.11443628054000E+01 2.14997270610000E+01 2.18610636856000E+01 
2.22284730530000E+01 2.26020572236000E+01 2.29819199731000E+01 2.33681668216000E+01 
2.37609050622000E+01 2.41602437914000E+01 2.45662939392000E+01 2.49791683000000E+01 
2.53989815637000E+01 2.58258503478000E+01 2.62598932297000E+01 2.67012307797000E+01 
2.71499855943000E+01 2.76062823307000E+01 2.80702477407000E+01 2.85420107067000E+01 
2.90217022770000E+01 2.95094557023000E+01 3.00054064729000E+01 3.05096923559000E+01 
3.10224534341000E+01 3.15438321443000E+01 3.20739733174000E+01 3.26130242183000E+01 
3.31611345867000E+01 3.37184566790000E+01 3.42851453105000E+01 3.48613578984000E+01 
3.54472545054000E+01 3.60429978844000E+01 3.66487535234000E+01 3.72646896918000E+01 
3.78909774870000E+01 3.85277908817000E+01 3.91753067728000E+01 3.98337050299000E+01 
4.05031685456000E+01 4.11838832863000E+01 4.18760383439000E+01 4.25798259880000E+01 
4.32954417198000E+01 4.40230843261000E+01 4.47629559343000E+01 4.55152620693000E+01 
4.62802117097000E+01 4.70580173465000E+01 4.78488950418000E+01 4.86530644890000E+01 
4.94707490735000E+01 5.03021759354000E+01 5.11475760318000E+01 5.20071842015000E+01 
5.28812392301000E+01 5.37699839163000E+01 5.46736651393000E+01 5.55925339275000E+01 
5.65268455282000E+01 5.74768594783000E+01 5.84428396767000E+01 5.94250544575000E+01 
6.04237766644000E+01 6.14392837267000E+01 6.24718577361000E+01 6.35217855256000E+01 
6.45893587483000E+01 6.56748739593000E+01 6.67786326976000E+01 6.79009415699000E+01 
6.90421123360000E+01 7.02024619949000E+01 7.13823128736000E+01 7.25819927159000E+01 
7.38018347741000E+01 7.50421779009000E+01 7.63033666440000E+01 7.75857513419000E+01 
7.88896882207000E+01 8.02155394934000E+01 8.15636734608000E+01 
</PP_R>
    <PP_RAB>
5.06601091975000E-06 5.15115197300000E-06 5.23772393493000E-06 5.32575085386000E-06 
5.41525718226000E-06 5.50626778359000E-06 5.59880793916000E-06 5.69290335515000E-06 
5.78858016980000E-06 5.88586496060000E-06 5.98478475173000E-06 6.08536702156000E-06 
6.18763971025000E-06 6.29163122753000E-06 6.39737046061000E-06 6.50488678217000E-06 
6.61421005856000E-06 6.72537065805000E-06 6.83839945930000E-06 6.95332785992000E-06 
7.07018778522000E-06 7.18901169703000E-06 7.30983260276000E-06 7.43268406455000E-06 
7.55760020860000E-06 7.68461573463000E-06 7.81376592556000E-06 7.94508665727000E-06 
8.07861440858000E-06 8.21438627139000E-06 8.35243996099000E-06 8.49281382650000E-06 
8.63554686158000E-06 8.78067871520000E-06 8.92824970270000E-06 9.07830081698000E-06 
9.23087373986000E-06 9.38601085368000E-06 9.54375525310000E-06 9.70415075701000E-06 
9.86724192075000E-06 1.00330740485000E-05 1.02016932057000E-05 1.03731462322000E-05 
1.05474807550000E-05 1.07247452013000E-05 1.09049888124000E-05 1.10882616573000E-05 
1.12746146461000E-05 1.14640995448000E-05 1.16567689893000E-05 1.18526765002000E-05 
1.20518764974000E-05 1.22544243156000E-05 1.24603762194000E-05 1.26697894188000E-05 
1.28827220857000E-05 1.30992333694000E-05 1.33193834132000E-05 1.35432333714000E-05 
1.37708454259000E-05 1.40022828039000E-05 1.42376097948000E-05 1.44768917689000E-05 
1.47201951950000E-05 1.49675876588000E-05 1.52191378820000E-05 1.54749157415000E-05 
1.57349922881000E-05 1.59994397672000E-05 1.62683316379000E-05 1.65417425942000E-05 
1.68197485854000E-05 1.71024268372000E-05 1.73898558730000E-05 1.76821155362000E-05 
1.79792870118000E-05 1.82814528494000E-05 1.85886969860000E-05 1.89011047689000E-05 
1.92187629804000E-05 1.95417598606000E-05 1.98701851332000E-05 2.02041300294000E-05 
2.05436873138000E-05 2.08889513101000E-05 2.12400179273000E-05 2.15969846860000E-05 
2.19599507460000E-05 2.23290169335000E-05 2.27042857692000E-05 2.30858614971000E-05 
2.34738501126000E-05 2.38683593931000E-05 2.42694989268000E-05 2.46773801441000E-05 
2.50921163478000E-05 2.55138227453000E-05 2.59426164798000E-05 2.63786166634000E-05 
2.68219444102000E-05 2.72727228695000E-05 2.77310772606000E-05 2.81971349070000E-05 
2.86710252722000E-05 2.91528799955000E-05 2.96428329284000E-05 3.01410201721000E-05 
3.06475801153000E-05 3.11626534723000E-05 3.16863833223000E-05 3.22189151491000E-05 
3.27603968818000E-05 3.33109789354000E-05 3.38708142529000E-05 3.44400583476000E-05 
3.50188693468000E-05 3.56074080348000E-05 3.62058378984000E-05 3.68143251720000E-05 
3.74330388838000E-05 3.80621509027000E-05 3.87018359859000E-05 3.93522718281000E-05 
4.00136391099000E-05 4.06861215487000E-05 4.13699059496000E-05 4.20651822570000E-05 
4.27721436078000E-05 4.34909863846000E-05 4.42219102706000E-05 4.49651183049000E-05 
4.57208169390000E-05 4.64892160940000E-05 4.72705292191000E-05 4.80649733507000E-05 
4.88727691728000E-05 4.96941410784000E-05 5.05293172316000E-05 5.13785296312000E-05 
5.22420141750000E-05 5.31200107252000E-05 5.40127631756000E-05 5.49205195186000E-05 
5.58435319146000E-05 5.67820567619000E-05 5.77363547679000E-05 5.87066910214000E-05 
5.96933350666000E-05 6.06965609776000E-05 6.17166474347000E-05 6.27538778018000E-05 
6.38085402052000E-05 6.48809276133000E-05 6.59713379185000E-05 6.70800740196000E-05 
6.82074439059000E-05 6.93537607430000E-05 7.05193429596000E-05 7.17045143360000E-05 
7.29096040941000E-05 7.41349469889000E-05 7.53808834011000E-05 7.66477594324000E-05 
7.79359270008000E-05 7.92457439389000E-05 8.05775740932000E-05 8.19317874252000E-05 
8.33087601138000E-05 8.47088746603000E-05 8.61325199945000E-05 8.75800915825000E-05 
8.90519915369000E-05 9.05486287282000E-05 9.20704188987000E-05 9.36177847775000E-05 
9.51911561985000E-05 9.67909702194000E-05 9.84176712433000E-05 1.00071711142000E-04 
1.01753549382000E-04 1.03463653151000E-04 1.05202497489000E-04 1.06970565419000E-04 
1.08768348083000E-04 1.10596344876000E-04 1.12455063588000E-04 1.14345020540000E-04 
1.16266740733000E-04 1.18220757991000E-04 1.20207615108000E-04 1.22227864003000E-04 
1.24282065868000E-04 1.26370791328000E-04 1.28494620598000E-04 1.30654143644000E-04 
1.32849960349000E-04 1.35082680674000E-04 1.37352924835000E-04 1.39661323470000E-04 
1.42008517814000E-04 1.44395159882000E-04 1.46821912645000E-04 1.49289450217000E-04 
1.51798458041000E-04 1.54349633078000E-04 1.56943684007000E-04 1.59581331412000E-04 
1.62263307992000E-04 1.64990358755000E-04 1.67763241235000E-04 1.70582725694000E-04 
1.73449595340000E-04 1.76364646545000E-04 1.79328689063000E-04 1.82342546259000E-04 
1.85407055335000E-04 1.88523067563000E-04 1.91691448522000E-04 1.94913078338000E-04 
1.98188851929000E-04 2.01519679254000E-04 2.04906485562000E-04 2.08350211657000E-04 
2.11851814150000E-04 2.15412265732000E-04 2.19032555439000E-04 2.22713688931000E-04 
2.26456688769000E-04 2.30262594698000E-04 2.34132463940000E-04 2.38067371484000E-04 
2.42068410383000E-04 2.46136692064000E-04 2.50273346631000E-04 2.54479523181000E-04 
2.58756390124000E-04 2.63105135506000E-04 2.67526967340000E-04 2.72023113940000E-04 
2.76594824266000E-04 2.81243368266000E-04 2.85970037232000E-04 2.90776144158000E-04 
2.95663024105000E-04 3.00632034571000E-04 3.05684555869000E-04 3.10821991509000E-04 
3.16045768589000E-04 3.21357338194000E-04 3.26758175791000E-04 3.32249781650000E-04 
3.37833681251000E-04 3.43511425714000E-04 3.49284592226000E-04 3.55154784482000E-04 
3.61123633128000E-04 3.67192796217000E-04 3.73363959665000E-04 3.79638837726000E-04 
3.86019173460000E-04 3.92506739225000E-04 3.99103337163000E-04 4.05810799705000E-04 
4.12630990080000E-04 4.19565802827000E-04 4.26617164328000E-04 4.33787033340000E-04 
4.41077401539000E-04 4.48490294076000E-04 4.56027770133000E-04 4.63691923503000E-04 
4.71484883167000E-04 4.79408813885000E-04 4.87465916802000E-04 4.95658430051000E-04 
5.03988629386000E-04 5.12458828802000E-04 5.21071381188000E-04 5.29828678975000E-04 
5.38733154802000E-04 5.47787282192000E-04 5.56993576238000E-04 5.66354594303000E-04 
5.75872936731000E-04 5.85551247566000E-04 5.95392215291000E-04 6.05398573570000E-04 
6.15573102013000E-04 6.25918626942000E-04 6.36438022182000E-04 6.47134209853000E-04 
6.58010161188000E-04 6.69068897354000E-04 6.80313490294000E-04 6.91747063578000E-04 
7.03372793273000E-04 7.15193908821000E-04 7.27213693943000E-04 7.39435487545000E-04 
7.51862684648000E-04 7.64498737331000E-04 7.77347155691000E-04 7.90411508814000E-04 
8.03695425772000E-04 8.17202596628000E-04 8.30936773459000E-04 8.44901771404000E-04 
8.59101469718000E-04 8.73539812853000E-04 8.88220811554000E-04 9.03148543969000E-04 
9.18327156787000E-04 9.33760866386000E-04 9.49453960008000E-04 9.65410796947000E-04 
9.81635809759000E-04 9.98133505497000E-04 1.01490846696000E-03 1.03196535397000E-03 
1.04930890465000E-03 1.06694393678000E-03 1.08487534909000E-03 1.10310812263000E-03 
1.12164732219000E-03 1.14049809767000E-03 1.15966568550000E-03 1.17915541015000E-03 
1.19897268555000E-03 1.21912301663000E-03 1.23961200082000E-03 1.26044532966000E-03 
1.28162879031000E-03 1.30316826719000E-03 1.32506974364000E-03 1.34733930353000E-03 
1.36998313301000E-03 1.39300752217000E-03 1.41641886681000E-03 1.44022367025000E-03 
1.46442854509000E-03 1.48904021504000E-03 1.51406551686000E-03 1.53951140216000E-03 
1.56538493942000E-03 1.59169331589000E-03 1.61844383963000E-03 1.64564394151000E-03 
1.67330117729000E-03 1.70142322971000E-03 1.73001791064000E-03 1.75909316322000E-03 
1.78865706410000E-03 1.81871782567000E-03 1.84928379832000E-03 1.88036347282000E-03 
1.91196548259000E-03 1.94409860617000E-03 1.97677176965000E-03 2.00999404911000E-03 
2.04377467317000E-03 2.07812302557000E-03 2.11304864772000E-03 2.14856124141000E-03 
2.18467067149000E-03 2.22138696858000E-03 2.25872033189000E-03 2.29668113204000E-03 
2.33527991394000E-03 2.37452739972000E-03 2.41443449171000E-03 2.45501227547000E-03 
2.49627202287000E-03 2.53822519522000E-03 2.58088344645000E-03 2.62425862634000E-03 
2.66836278383000E-03 2.71320817037000E-03 2.75880724329000E-03 2.80517266929000E-03 
2.85231732796000E-03 2.90025431534000E-03 2.94899694757000E-03 2.99855876458000E-03 
3.04895353386000E-03 3.10019525428000E-03 3.15229815998000E-03 3.20527672434000E-03 
3.25914566394000E-03 3.31391994275000E-03 3.36961477618000E-03 3.42624563538000E-03 
3.48382825152000E-03 3.54237862012000E-03 3.60191300556000E-03 3.66244794556000E-03 
3.72400025575000E-03 3.78658703441000E-03 3.85022566715000E-03 3.91493383177000E-03 
3.98072950319000E-03 4.04763095840000E-03 4.11565678157000E-03 4.18482586919000E-03 
4.25515743536000E-03 4.32667101706000E-03 4.39938647965000E-03 4.47332402232000E-03 
4.54850418377000E-03 4.62494784784000E-03 4.70267624939000E-03 4.78171098014000E-03 
4.86207399468000E-03 4.94378761660000E-03 5.02687454464000E-03 5.11135785905000E-03 
5.19726102795000E-03 5.28460791389000E-03 5.37342278046000E-03 5.46373029901000E-03 
5.55555555556000E-03 5.64892405770000E-03 5.74386174174000E-03 5.84039497987000E-03 
5.93855058748000E-03 6.03835583067000E-03 6.13983843375000E-03 6.24302658699000E-03 
6.34794895442000E-03 6.45463468182000E-03 6.56311340481000E-03 6.67341525705000E-03 
6.78557087867000E-03 6.89961142471000E-03 7.01556857385000E-03 7.13347453715000E-03 
7.25336206703000E-03 7.37526446634000E-03 7.49921559764000E-03 7.62524989262000E-03 
7.75340236159000E-03 7.88370860330000E-03 8.01620481475000E-03 8.15092780131000E-03 
8.28791498690000E-03 8.42720442438000E-03 8.56883480617000E-03 8.71284547495000E-03 
8.85927643460000E-03 9.00816836134000E-03 9.15956261500000E-03 9.31350125050000E-03 
9.47002702957000E-03 9.62918343260000E-03 9.79101467071000E-03 9.95556569809000E-03 
1.01228822244000E-02 1.02930107275000E-02 1.04659984665000E-02 1.06418934945000E-02 
1.08207446725000E-02 1.10026016825000E-02 1.11875150415000E-02 1.13755361155000E-02 
1.15667171338000E-02 1.17611112034000E-02 1.19587723240000E-02 1.21597554027000E-02 
1.23641162694000E-02 1.25719116924000E-02 1.27831993938000E-02 1.29980380663000E-02 
1.32164873884000E-02 1.34386080420000E-02 1.36644617286000E-02 1.38941111870000E-02 
1.41276202100000E-02 1.43650536629000E-02 1.46064775007000E-02 1.48519587874000E-02 
1.51015657137000E-02 1.53553676164000E-02 1.56134349978000E-02 1.58758395448000E-02 
1.61426541493000E-02 1.64139529283000E-02 1.66898112441000E-02 1.69703057260000E-02 
1.72555142908000E-02 1.75455161649000E-02 1.78403919064000E-02 1.81402234270000E-02 
1.84450940152000E-02 1.87550883592000E-02 1.90702925706000E-02 1.93907942081000E-02 
1.97166823020000E-02 2.00480473789000E-02 2.03849814868000E-02 2.07275782206000E-02 
2.10759327482000E-02 2.14301418372000E-02 2.17903038811000E-02 2.21565189274000E-02 
2.25288887047000E-02 2.29075166515000E-02 2.32925079447000E-02 2.36839695287000E-02 
2.40820101455000E-02 2.44867403643000E-02 2.48982726130000E-02 2.53167212086000E-02 
2.57422023895000E-02 2.61748343477000E-02 2.66147372616000E-02 2.70620333291000E-02 
2.75168468022000E-02 2.79793040207000E-02 2.84495334481000E-02 2.89276657066000E-02 
2.94138336137000E-02 2.99081722194000E-02 3.04108188429000E-02 3.09219131117000E-02 
3.14415969997000E-02 3.19700148667000E-02 3.25073134990000E-02 3.30536421496000E-02 
3.36091525801000E-02 3.41739991023000E-02 3.47483386219000E-02 3.53323306811000E-02 
3.59261375039000E-02 3.65299240403000E-02 3.71438580127000E-02 3.77681099622000E-02 
3.84028532963000E-02 3.90482643366000E-02 3.97045223681000E-02 4.03718096888000E-02 
4.10503116607000E-02 4.17402167610000E-02 4.24417166342000E-02 4.31550061461000E-02 
4.38802834373000E-02 4.46177499782000E-02 4.53676106254000E-02 4.61300736784000E-02 
4.69053509374000E-02 4.76936577621000E-02 4.84952131318000E-02 4.93102397058000E-02 
5.01389638857000E-02 5.09816158780000E-02 5.18384297581000E-02 5.27096435353000E-02 
5.35954992191000E-02 5.44962428862000E-02 5.54121247490000E-02 5.63433992249000E-02 
5.72903250074000E-02 5.82531651374000E-02 5.92321870767000E-02 6.02276627822000E-02 
6.12398687813000E-02 6.22690862489000E-02 6.33156010852000E-02 6.43797039957000E-02 
6.54616905712000E-02 6.65618613706000E-02 6.76805220039000E-02 6.88179832174000E-02 
6.99745609799000E-02 7.11505765704000E-02 7.23463566674000E-02 7.35622334398000E-02 
7.47985446389000E-02 7.60556336925000E-02 7.73338498001000E-02 7.86335480299000E-02 
7.99550894175000E-02 8.12988410663000E-02 8.26651762493000E-02 8.40544745128000E-02 
8.54671217819000E-02 8.69035104677000E-02 8.83640395764000E-02 8.98491148197000E-02 
9.13591487283000E-02 9.28945607657000E-02 9.44557774450000E-02 9.60432324476000E-02 
9.76573667435000E-02 9.92986287136000E-02 1.00967474275000E-01 1.02664367006000E-01 
1.04389778276000E-01 1.06144187379000E-01 1.07928081661000E-01 1.09741956659000E-01 
1.11586316240000E-01 1.13461672737000E-01 1.15368547095000E-01 1.17307469014000E-01 