<UPF version="2.0.1">
  <PP_INFO>
Generated using Vanderbilt code, version   7  3  6
Author: kfg        Generation date:   13    5 2013
Automatically converted from original USPP format to UPF.v1.

Futher converted to UPF.v2 format.
Convert Q_IJ to Q_IJL use the same routine as 'upflib/upf_to_internal.f90' of QE.
The conversion is done by using PseudoPotentialIO.jl package.
Converted by: JYU on 2024-04-30

1        The Pseudo was generated with a Scalar-Relativistic Calculation
1.80000000000E+00    Local Potential cutoff radius
nl pn  l   occ               Rcut            Rcut US             E pseu
4S  4  0  2.00      0.00000000000      1.80000000000     -4.93159169500
4P  4  1  6.00      0.00000000000      2.00000000000     -3.02026415000
4D  4  2  4.00      0.00000000000      2.20000000000     -0.41545613300
5S  5  0  2.00      0.00000000000      1.80000000000     -0.35855576600
5P  5  1  0.00      0.00000000000      2.00000000000     -0.10539232600
</PP_INFO>
  <PP_HEADER element="Mo" pseudo_type="US" relativistic="scalar" is_ultrasoft="T" is_paw="F" is_coulomb="F" has_so="F" has_wfc="F" has_gipaw="F" core_correction="T" functional="PBE" z_valence="14.0" total_psenergy="-138.522039187" wfc_cutoff="0.0" rho_cutoff="0.0" l_max="2" mesh_size="889" number_of_wfc="5" number_of_proj="6"/>
  <PP_MESH>
    <PP_R>
0.00000000000000E+00 1.00882878762000E-06 2.03490209543000E-06 3.07851469443000E-06 
4.13996639433000E-06 5.21956212967000E-06 6.31761204740000E-06 7.43443159602000E-06 
8.57034161618000E-06 9.72566843284000E-06 1.09007439490000E-05 1.20959057412000E-05 
1.33114971563000E-05 1.45478674101000E-05 1.58053716879000E-05 1.70843712463000E-05 
1.83852335172000E-05 1.97083322131000E-05 2.10540474347000E-05 2.24227657799000E-05 
2.38148804550000E-05 2.52307913877000E-05 2.66709053416000E-05 2.81356360338000E-05 
2.96254042529000E-05 3.11406379806000E-05 3.26817725142000E-05 3.42492505918000E-05 
3.58435225196000E-05 3.74650463010000E-05 3.91142877684000E-05 4.07917207170000E-05 
4.24978270408000E-05 4.42330968711000E-05 4.59980287174000E-05 4.77931296105000E-05 
4.96189152481000E-05 5.14759101430000E-05 5.33646477741000E-05 5.52856707389000E-05 
5.72395309104000E-05 5.92267895947000E-05 6.12480176927000E-05 6.33037958642000E-05 
6.53947146945000E-05 6.75213748641000E-05 6.96843873212000E-05 7.18843734576000E-05 
7.41219652867000E-05 7.63978056253000E-05 7.87125482783000E-05 8.10668582264000E-05 
8.34614118174000E-05 8.58968969601000E-05 8.83740133224000E-05 9.08934725318000E-05 
9.34559983802000E-05 9.60623270317000E-05 9.87132072340000E-05 1.01409400534000E-04 
1.04151681495000E-04 1.06940837922000E-04 1.09777671086000E-04 1.12662995954000E-04 
1.15597641423000E-04 1.18582450561000E-04 1.21618280846000E-04 1.24706004413000E-04 
1.27846508304000E-04 1.31040694727000E-04 1.34289481309000E-04 1.37593801363000E-04 
1.40954604157000E-04 1.44372855185000E-04 1.47849536443000E-04 1.51385646716000E-04 
1.54982201858000E-04 1.58640235091000E-04 1.62360797297000E-04 1.66144957322000E-04 
1.69993802280000E-04 1.73908437872000E-04 1.77889988697000E-04 1.81939598575000E-04 
1.86058430883000E-04 1.90247668881000E-04 1.94508516056000E-04 1.98842196467000E-04 
2.03249955096000E-04 2.07733058208000E-04 2.12292793710000E-04 2.16930471528000E-04 
2.21647423975000E-04 2.26445006141000E-04 2.31324596279000E-04 2.36287596200000E-04 
2.41335431679000E-04 2.46469552860000E-04 2.51691434678000E-04 2.57002577277000E-04 
2.62404506447000E-04 2.67898774057000E-04 2.73486958504000E-04 2.79170665165000E-04 
2.84951526859000E-04 2.90831204316000E-04 2.96811386654000E-04 3.02893791862000E-04 
3.09080167299000E-04 3.15372290190000E-04 3.21771968141000E-04 3.28281039654000E-04 
3.34901374662000E-04 3.41634875056000E-04 3.48483475243000E-04 3.55449142691000E-04 
3.62533878503000E-04 3.69739717987000E-04 3.77068731240000E-04 3.84523023746000E-04 
3.92104736979000E-04 3.99816049018000E-04 4.07659175175000E-04 4.15636368628000E-04 
4.23749921069000E-04 4.32002163366000E-04 4.40395466229000E-04 4.48932240890000E-04 
4.57614939799000E-04 4.66446057329000E-04 4.75428130488000E-04 4.84563739653000E-04 
4.93855509306000E-04 5.03306108794000E-04 5.12918253090000E-04 5.22694703579000E-04 
5.32638268844000E-04 5.42751805481000E-04 5.53038218911000E-04 5.63500464223000E-04 
5.74141547018000E-04 5.84964524272000E-04 5.95972505218000E-04 6.07168652235000E-04 
6.18556181760000E-04 6.30138365209000E-04 6.41918529920000E-04 6.53900060107000E-04 
6.66086397830000E-04 6.78481043989000E-04 6.91087559327000E-04 7.03909565450000E-04 
7.16950745873000E-04 7.30214847075000E-04 7.43705679576000E-04 7.57427119030000E-04 
7.71383107342000E-04 7.85577653797000E-04 8.00014836213000E-04 8.14698802114000E-04 
8.29633769919000E-04 8.44824030156000E-04 8.60273946691000E-04 8.75987957987000E-04 
8.91970578376000E-04 9.08226399355000E-04 9.24760090906000E-04 9.41576402840000E-04 
9.58680166157000E-04 9.76076294439000E-04 9.93769785254000E-04 1.01176572160000E-03 
1.03006927337000E-03 1.04868569880000E-03 1.06762034605000E-03 1.08687865467000E-03 
1.10646615720000E-03 1.12638848074000E-03 1.14665134861000E-03 1.16726058192000E-03 
1.18822210131000E-03 1.20954192862000E-03 1.23122618862000E-03 1.25328111079000E-03 
1.27571303107000E-03 1.29852839372000E-03 1.32173375315000E-03 1.34533577582000E-03 
1.36934124213000E-03 1.39375704838000E-03 1.41859020876000E-03 1.44384785736000E-03 
1.46953725022000E-03 1.49566576739000E-03 1.52224091510000E-03 1.54927032788000E-03 
1.57676177074000E-03 1.60472314144000E-03 1.63316247276000E-03 1.66208793476000E-03 
1.69150783716000E-03 1.72143063173000E-03 1.75186491471000E-03 1.78281942929000E-03 
1.81430306810000E-03 1.84632487577000E-03 1.87889405155000E-03 1.91201995194000E-03 
1.94571209336000E-03 1.97998015493000E-03 2.01483398117000E-03 2.05028358494000E-03 
2.08633915021000E-03 2.12301103505000E-03 2.16030977458000E-03 2.19824608400000E-03 
2.23683086169000E-03 2.27607519231000E-03 2.31599034999000E-03 2.35658780158000E-03 
2.39787920995000E-03 2.43987643732000E-03 2.48259154868000E-03 2.52603681525000E-03 
2.57022471803000E-03 2.61516795133000E-03 2.66087942648000E-03 2.70737227550000E-03 
2.75465985490000E-03 2.80275574946000E-03 2.85167377622000E-03 2.90142798838000E-03 
2.95203267936000E-03 3.00350238690000E-03 3.05585189726000E-03 3.10909624945000E-03 
3.16325073952000E-03 3.21833092503000E-03 3.27435262943000E-03 3.33133194669000E-03 
3.38928524585000E-03 3.44822917579000E-03 3.50818066994000E-03 3.56915695121000E-03 
3.63117553692000E-03 3.69425424379000E-03 3.75841119313000E-03 3.82366481597000E-03 
3.89003385843000E-03 3.95753738704000E-03 4.02619479427000E-03 4.09602580405000E-03 
4.16705047749000E-03 4.23928921860000E-03 4.31276278017000E-03 4.38749226973000E-03 
4.46349915563000E-03 4.54080527316000E-03 4.61943283088000E-03 4.69940441697000E-03 
4.78074300572000E-03 4.86347196412000E-03 4.94761505860000E-03 5.03319646186000E-03 
5.12024075976000E-03 5.20877295846000E-03 5.29881849154000E-03 5.39040322734000E-03 
5.48355347638000E-03 5.57829599892000E-03 5.67465801267000E-03 5.77266720055000E-03 
5.87235171872000E-03 5.97374020460000E-03 6.07686178516000E-03 6.18174608521000E-03 
6.28842323600000E-03 6.39692388379000E-03 6.50727919874000E-03 6.61952088378000E-03 
6.73368118379000E-03 6.84979289480000E-03 6.96788937346000E-03 7.08800454660000E-03 
7.21017292100000E-03 7.33442959325000E-03 7.46081025991000E-03 7.58935122768000E-03 
7.72008942391000E-03 7.85306240713000E-03 7.98830837793000E-03 8.12586618985000E-03 
8.26577536058000E-03 8.40807608333000E-03 8.55280923834000E-03 8.70001640464000E-03 
8.84973987200000E-03 9.00202265308000E-03 9.15690849578000E-03 9.31444189580000E-03 
9.47466810943000E-03 9.63763316658000E-03 9.80338388394000E-03 9.97196787848000E-03 
1.01434335811000E-02 1.03178302507000E-02 1.04952079879000E-02 1.06756177500000E-02 
1.08591113652000E-02 1.10457415476000E-02 1.12355619126000E-02 1.14286269918000E-02 
1.16249922490000E-02 1.18247140963000E-02 1.20278499099000E-02 1.22344580466000E-02 
1.24445978611000E-02 1.26583297225000E-02 1.28757150318000E-02 1.30968162395000E-02 
1.33216968638000E-02 1.35504215085000E-02 1.37830558819000E-02 1.40196668151000E-02 
1.42603222821000E-02 1.45050914184000E-02 1.47540445415000E-02 1.50072531708000E-02 
1.52647900482000E-02 1.55267291591000E-02 1.57931457535000E-02 1.60641163678000E-02 
1.63397188466000E-02 1.66200323652000E-02 1.69051374521000E-02 1.71951160126000E-02 
1.74900513519000E-02 1.77900281992000E-02 1.80951327320000E-02 1.84054526011000E-02 
1.87210769552000E-02 1.90420964671000E-02 1.93686033596000E-02 1.97006914317000E-02 
2.00384560860000E-02 2.03819943556000E-02 2.07314049325000E-02 2.10867881956000E-02 
2.14482462396000E-02 2.18158829044000E-02 2.21898038049000E-02 2.25701163613000E-02 
2.29569298302000E-02 2.33503553354000E-02 2.37505059006000E-02 2.41574964812000E-02 
2.45714439978000E-02 2.49924673695000E-02 2.54206875481000E-02 2.58562275531000E-02 
2.62992125066000E-02 2.67497696696000E-02 2.72080284786000E-02 2.76741205823000E-02 
2.81481798801000E-02 2.86303425599000E-02 2.91207471379000E-02 2.96195344977000E-02 
3.01268479313000E-02 3.06428331800000E-02 3.11676384765000E-02 3.17014145871000E-02 
3.22443148553000E-02 3.27964952459000E-02 3.33581143897000E-02 3.39293336289000E-02 
3.45103170639000E-02 3.51012315998000E-02 3.57022469950000E-02 3.63135359097000E-02 
3.69352739552000E-02 3.75676397448000E-02 3.82108149452000E-02 3.88649843279000E-02 
3.95303358233000E-02 4.02070605739000E-02 4.08953529897000E-02 4.15954108037000E-02 
4.23074351291000E-02 4.30316305166000E-02 4.37682050135000E-02 4.45173702235000E-02 
4.52793413672000E-02 4.60543373442000E-02 4.68425807958000E-02 4.76442981692000E-02 
4.84597197821000E-02 4.92890798896000E-02 5.01326167506000E-02 5.09905726969000E-02 
5.18631942028000E-02 5.27507319556000E-02 5.36534409275000E-02 5.45715804495000E-02 
5.55054142852000E-02 5.64552107071000E-02 5.74212425732000E-02 5.84037874060000E-02 
5.94031274713000E-02 6.04195498604000E-02 6.14533465717000E-02 6.25048145950000E-02 
6.35742559968000E-02 6.46619780067000E-02 6.57682931064000E-02 6.68935191187000E-02 
6.80379792993000E-02 6.92020024295000E-02 7.03859229106000E-02 7.15900808600000E-02 
7.28148222090000E-02 7.40604988021000E-02 7.53274684981000E-02 7.66160952728000E-02 
7.79267493238000E-02 7.92598071766000E-02 8.06156517931000E-02 8.19946726810000E-02 
8.33972660063000E-02 8.48238347072000E-02 8.62747886090000E-02 8.77505445428000E-02 
8.92515264647000E-02 9.07781655777000E-02 9.23309004558000E-02 9.39101771696000E-02 
9.55164494148000E-02 9.71501786423000E-02 9.88118341909000E-02 1.00501893422000E-01 
1.02220841857000E-01 1.03969173317000E-01 1.05747390062000E-01 1.07556002942000E-01 
1.09395531534000E-01 1.11266504301000E-01 1.13169458736000E-01 1.15104941521000E-01 
1.17073508683000E-01 1.19075725753000E-01 1.21112167930000E-01 1.23183420244000E-01 
1.25290077725000E-01 1.27432745576000E-01 1.29612039344000E-01 1.31828585097000E-01 
1.34083019606000E-01 1.36375990527000E-01 1.38708156585000E-01 1.41080187768000E-01 
1.43492765513000E-01 1.45946582908000E-01 1.48442344887000E-01 1.50980768433000E-01 
1.53562582787000E-01 1.56188529655000E-01 1.58859363419000E-01 1.61575851359000E-01 
1.64338773870000E-01 1.67148924684000E-01 1.70007111105000E-01 1.72914154234000E-01 
1.75870889208000E-01 1.78878165440000E-01 1.81936846863000E-01 1.85047812175000E-01 
1.88211955098000E-01 1.91430184628000E-01 1.94703425300000E-01 1.98032617454000E-01 
2.01418717501000E-01 2.04862698203000E-01 2.08365548948000E-01 2.11928276038000E-01 
2.15551902976000E-01 2.19237470759000E-01 2.22986038180000E-01 2.26798682129000E-01 
2.30676497905000E-01 2.34620599530000E-01 2.38632120068000E-01 2.42712211952000E-01 
2.46862047311000E-01 2.51082818315000E-01 2.55375737508000E-01 2.59742038164000E-01 
2.64182974635000E-01 2.68699822718000E-01 2.73293880015000E-01 2.77966466310000E-01 
2.82718923947000E-01 2.87552618214000E-01 2.92468937739000E-01 2.97469294885000E-01 
3.02555126158000E-01 3.07727892618000E-01 3.12989080302000E-01 3.18340200647000E-01 
3.23782790926000E-01 3.29318414690000E-01 3.34948662216000E-01 3.40675150967000E-01 
3.46499526050000E-01 3.52423460698000E-01 3.58448656740000E-01 3.64576845100000E-01 
3.70809786287000E-01 3.77149270906000E-01 3.83597120166000E-01 3.90155186410000E-01 
3.96825353645000E-01 4.03609538080000E-01 4.10509688679000E-01 4.17527787723000E-01 
4.24665851375000E-01 4.31925930264000E-01 4.39310110069000E-01 4.46820512122000E-01 
4.54459294017000E-01 4.62228650227000E-01 4.70130812739000E-01 4.78168051691000E-01 
4.86342676025000E-01 4.94657034154000E-01 5.03113514632000E-01 5.11714546841000E-01 
5.20462601693000E-01 5.29360192333000E-01 5.38409874867000E-01 5.47614249095000E-01 
5.56975959254000E-01 5.66497694783000E-01 5.76182191092000E-01 5.86032230350000E-01 
5.96050642282000E-01 6.06240304984000E-01 6.16604145750000E-01 6.27145141909000E-01 
6.37866321686000E-01 6.48770765069000E-01 6.59861604694000E-01 6.71142026743000E-01 
6.82615271864000E-01 6.94284636098000E-01 7.06153471828000E-01 7.18225188740000E-01 
7.30503254806000E-01 7.42991197275000E-01 7.55692603693000E-01 7.68611122927000E-01 
7.81750466218000E-01 7.95114408245000E-01 8.08706788211000E-01 8.22531510942000E-01 
8.36592548014000E-01 8.50893938891000E-01 8.65439792086000E-01 8.80234286341000E-01 
8.95281671828000E-01 9.10586271369000E-01 9.26152481681000E-01 9.41984774633000E-01 
9.58087698537000E-01 9.74465879452000E-01 9.91124022513000E-01 1.00806691328000E+00 
1.02529941912000E+00 1.04282649060000E+00 1.06065316290000E+00 1.07878455729000E+00 
1.09722588255000E+00 1.11598243654000E+00 1.13505960764000E+00 1.15446287636000E+00 
1.17419781688000E+00 1.19427009866000E+00 1.21468548808000E+00 1.23544985010000E+00 
1.25656914991000E+00 1.27804945467000E+00 1.29989693526000E+00 1.32211786804000E+00 
1.34471863666000E+00 1.36770573388000E+00 1.39108576344000E+00 1.41486544197000E+00 
1.43905160093000E+00 1.46365118851000E+00 1.48867127172000E+00 1.51411903833000E+00 
1.54000179899000E+00 1.56632698933000E+00 1.59310217205000E+00 1.62033503916000E+00 
1.64803341412000E+00 1.67620525414000E+00 1.70485865246000E+00 1.73400184063000E+00 
1.76364319092000E+00 1.79379121874000E+00 1.82445458501000E+00 1.85564209874000E+00 
1.88736271948000E+00 1.91962555997000E+00 1.95243988870000E+00 1.98581513257000E+00 
2.01976087966000E+00 2.05428688192000E+00 2.08940305800000E+00 2.12511949611000E+00 
2.16144645688000E+00 2.19839437634000E+00 2.23597386893000E+00 2.27419573049000E+00 
2.31307094143000E+00 2.35261066985000E+00 2.39282627475000E+00 2.43372930928000E+00 
2.47533152411000E+00 2.51764487074000E+00 2.56068150497000E+00 2.60445379040000E+00 
2.64897430197000E+00 2.69425582955000E+00 2.74031138164000E+00 2.78715418912000E+00 
2.83479770902000E+00 2.88325562841000E+00 2.93254186829000E+00 2.98267058766000E+00 
3.03365618753000E+00 3.08551331508000E+00 3.13825686784000E+00 3.19190199803000E+00 
3.24646411686000E+00 3.30195889895000E+00 3.35840228690000E+00 3.41581049579000E+00 
3.47420001790000E+00 3.53358762739000E+00 3.59399038519000E+00 3.65542564383000E+00 
3.71791105248000E+00 3.78146456198000E+00 3.84610443003000E+00 3.91184922642000E+00 
3.97871783834000E+00 4.04672947587000E+00 4.11590367741000E+00 4.18626031540000E+00 
4.25781960192000E+00 4.33060209457000E+00 4.40462870236000E+00 4.47992069169000E+00 
4.55649969251000E+00 4.63438770447000E+00 4.71360710329000E+00 4.79418064718000E+00 
4.87613148334000E+00 4.95948315469000E+00 5.04425960652000E+00 5.13048519349000E+00 
5.21818468652000E+00 5.30738328000000E+00 5.39810659894000E+00 5.49038070641000E+00 
5.58423211097000E+00 5.67968777430000E+00 5.77677511898000E+00 5.87552203632000E+00 
5.97595689441000E+00 6.07810854622000E+00 6.18200633795000E+00 6.28768011744000E+00 
6.39516024270000E+00 6.50447759071000E+00 6.61566356621000E+00 6.72875011080000E+00 
6.84376971203000E+00 6.96075541283000E+00 7.07974082092000E+00 7.20076011850000E+00 
7.32384807207000E+00 7.44904004243000E+00 7.57637199481000E+00 7.70588050920000E+00 
7.83760279090000E+00 7.97157668118000E+00 8.10784066813000E+00 8.24643389777000E+00 
8.38739618524000E+00 8.53076802629000E+00 8.67659060888000E+00 8.82490582500000E+00 
8.97575628275000E+00 9.12918531854000E+00 9.28523700958000E+00 9.44395618648000E+00 
9.60538844620000E+00 9.76958016511000E+00 9.93657851230000E+00 1.01064314632000E+01 
1.02791878132000E+01 1.04548971919000E+01 1.06336100772000E+01 1.08153778099000E+01 
1.10002526083000E+01 1.11882875834000E+01 1.13795367539000E+01 1.15740550621000E+01 
1.17718983894000E+01 1.19731235721000E+01 1.21777884186000E+01 1.23859517249000E+01 
1.25976732925000E+01 1.28130139448000E+01 1.30320355450000E+01 1.32548010138000E+01 
1.34813743473000E+01 1.37118206358000E+01 1.39462060820000E+01 1.41845980203000E+01 
1.44270649361000E+01 1.46736764854000E+01 1.49245035150000E+01 1.51796180825000E+01 
1.54390934776000E+01 1.57030042424000E+01 1.59714261935000E+01 1.62444364431000E+01 
1.65221134220000E+01 1.68045369013000E+01 1.70917880158000E+01 1.73839492872000E+01 
1.76811046478000E+01 1.79833394646000E+01 1.82907405638000E+01 1.86033962558000E+01 
1.89213963604000E+01 1.92448322331000E+01 1.95737967906000E+01 1.99083845381000E+01 
2.02486915962000E+01 2.05948157285000E+01 2.09468563698000E+01 2.13049146546000E+01 
2.16690934460000E+01 2.20394973656000E+01 2.24162328233000E+01 2.27994080478000E+01 
2.31891331181000E+01 2.35855199945000E+01 2.39886825514000E+01 2.43987366095000E+01 
2.48157999694000E+01 2.52399924455000E+01 2.56714358999000E+01 2.61102542780000E+01 
2.65565736439000E+01 2.70105222164000E+01 2.74722304063000E+01 2.79418308533000E+01 
2.84194584646000E+01 2.89052504533000E+01 2.93993463781000E+01 2.99018881831000E+01 
3.04130202389000E+01 3.09328893839000E+01 3.14616449664000E+01 3.19994388876000E+01 
3.25464256454000E+01 3.31027623784000E+01 3.36686089114000E+01 3.42441278012000E+01 
3.48294843833000E+01 3.54248468191000E+01 3.60303861449000E+01 3.66462763204000E+01 
3.72726942789000E+01 3.79098199781000E+01 3.85578364520000E+01 3.92169298632000E+01 
3.98872895563000E+01 4.05691081129000E+01 4.12625814061000E+01 4.19679086574000E+01 
4.26852924938000E+01 4.34149390056000E+01 4.41570578063000E+01 4.49118620921000E+01 
4.56795687038000E+01 4.64603981886000E+01 4.72545748637000E+01 4.80623268807000E+01 
4.88838862911000E+01 4.97194891131000E+01 5.05693753991000E+01 5.14337893051000E+01 
5.23129791604000E+01 5.32071975393000E+01 5.41167013333000E+01 5.50417518255000E+01 
5.59826147647000E+01 5.69395604429000E+01 5.79128637718000E+01 5.89028043629000E+01 
5.99096666067000E+01 6.09337397555000E+01 6.19753180054000E+01 6.30347005820000E+01 
6.41121918252000E+01 6.52081012774000E+01 6.63227437723000E+01 6.74564395250000E+01 
6.86095142244000E+01 6.97822991265000E+01 7.09751311498000E+01 7.21883529717000E+01 
7.34223131276000E+01 7.46773661101000E+01 7.59538724719000E+01 7.72521989284000E+01 
7.85727184636000E+01 7.99158104375000E+01 8.12818606941000E+01 8.26712616735000E+01 
8.40844125235000E+01 8.55217192150000E+01 8.69835946586000E+01 8.84704588226000E+01 
8.99827388544000E+01 9.15208692028000E+01 9.30852917429000E+01 9.46764559030000E+01 
9.62948187937000E+01 9.79408453395000E+01 9.96150084118000E+01 1.01317788965000E+02 
1.03049676176000E+02 1.04811167582000E+02 1.06602769224000E+02 1.08424995797000E+02 
1.10278370789000E+02 1.12163426641000E+02 1.14080704891000E+02 1.16030756338000E+02 
1.18014141192000E+02 1.20031429242000E+02 1.22083200017000E+02 1.24170042949000E+02 
1.26292557548000E+02 1.28451353573000E+02 1.30647051203000E+02 1.32880281219000E+02 
1.35151685186000E+02 1.37461915633000E+02 1.39811636246000E+02 1.42201522054000E+02 
1.44632259624000E+02 1.47104547260000E+02 1.49619095203000E+02 1.52176625834000E+02 
1.54777873882000E+02 1.57423586634000E+02 1.60114524154000E+02 1.62851459496000E+02 
1.65635178927000E+02 1.68466482157000E+02 1.71346182564000E+02 1.74275107430000E+02 
1.77254098180000E+02 1.80284010619000E+02 1.83365715183000E+02 1.86500097185000E+02 
1.89688057073000E+02 1.92930510686000E+02 1.96228389519000E+02 1.99582640987000E+02 
2.02994228704000E+02 
</PP_R>
    <PP_RAB>
1.00030354183000E-06 1.01740233485000E-06 1.03479340786000E-06 1.05248175699000E-06 
1.07047246377000E-06 1.08877069657000E-06 1.10738171213000E-06 1.12631085702000E-06 
1.14556356923000E-06 1.16514537968000E-06 1.18506191385000E-06 1.20531889338000E-06 
1.22592213770000E-06 1.24687756573000E-06 1.26819119756000E-06 1.28986915618000E-06 
1.31191766925000E-06 1.33434307087000E-06 1.35715180344000E-06 1.38035041946000E-06 
1.40394558345000E-06 1.42794407383000E-06 1.45235278491000E-06 1.47717872885000E-06 
1.50242903765000E-06 1.52811096523000E-06 1.55423188953000E-06 1.58079931458000E-06 
1.60782087268000E-06 1.63530432660000E-06 1.66325757181000E-06 1.69168863873000E-06 
1.72060569507000E-06 1.75001704812000E-06 1.77993114721000E-06 1.81035658608000E-06 
1.84130210536000E-06 1.87277659511000E-06 1.90478909733000E-06 1.93734880860000E-06 
1.97046508269000E-06 2.00414743327000E-06 2.03840553663000E-06 2.07324923445000E-06 
2.10868853666000E-06 2.14473362428000E-06 2.18139485236000E-06 2.21868275298000E-06 
2.25660803822000E-06 2.29518160328000E-06 2.33441452960000E-06 2.37431808804000E-06 
2.41490374213000E-06 2.45618315133000E-06 2.49816817442000E-06 2.54087087288000E-06 
2.58430351438000E-06 2.62847857627000E-06 2.67340874919000E-06 2.71910694071000E-06 
2.76558627904000E-06 2.81286011679000E-06 2.86094203482000E-06 2.90984584614000E-06 
2.95958559986000E-06 3.01017558525000E-06 3.06163033584000E-06 3.11396463358000E-06 
3.16719351310000E-06 3.22133226602000E-06 3.27639644538000E-06 3.33240187003000E-06 
3.38936462925000E-06 3.44730108734000E-06 3.50622788833000E-06 3.56616196074000E-06 
3.62712052248000E-06 3.68912108575000E-06 3.75218146212000E-06 3.81631976762000E-06 
3.88155442794000E-06 3.94790418374000E-06 4.01538809601000E-06 4.08402555158000E-06 
4.15383626867000E-06 4.22484030253000E-06 4.29705805126000E-06 4.37051026161000E-06 
4.44521803499000E-06 4.52120283349000E-06 4.59848648608000E-06 4.67709119485000E-06 
4.75703954141000E-06 4.83835449338000E-06 4.92105941097000E-06 5.00517805371000E-06 
5.09073458724000E-06 5.17775359031000E-06 5.26626006179000E-06 5.35627942789000E-06 
5.44783754941000E-06 5.54096072924000E-06 5.63567571987000E-06 5.73200973107000E-06 
5.82999043776000E-06 5.92964598788000E-06 6.03100501054000E-06 6.13409662425000E-06 
6.23895044521000E-06 6.34559659591000E-06 6.45406571371000E-06 6.56438895971000E-06 
6.67659802762000E-06 6.79072515295000E-06 6.90680312222000E-06 7.02486528236000E-06 
7.14494555037000E-06 7.26707842297000E-06 7.39129898658000E-06 7.51764292735000E-06 
7.64614654147000E-06 7.77684674553000E-06 7.90978108718000E-06 8.04498775586000E-06 
8.18250559386000E-06 8.32237410737000E-06 8.46463347791000E-06 8.60932457386000E-06 
8.75648896216000E-06 8.90616892029000E-06 9.05840744842000E-06 9.21324828171000E-06 
9.37073590295000E-06 9.53091555529000E-06 9.69383325523000E-06 9.85953580588000E-06 
1.00280708104000E-05 1.01994866856000E-05 1.03738326759000E-05 1.05511588677000E-05 
1.07315162032000E-05 1.09149564956000E-05 1.11015324438000E-05 1.12912976475000E-05 
1.14843066225000E-05 1.16806148166000E-05 1.18802786252000E-05 1.20833554080000E-05 
1.22899035051000E-05 1.24999822535000E-05 1.27136520050000E-05 1.29309741427000E-05 
1.31520110990000E-05 1.33768263736000E-05 1.36054845516000E-05 1.38380513220000E-05 
1.40745934968000E-05 1.43151790299000E-05 1.45598770370000E-05 1.48087578150000E-05 
1.50618928625000E-05 1.53193549004000E-05 1.55812178925000E-05 1.58475570670000E-05 
1.61184489380000E-05 1.63939713275000E-05 1.66742033877000E-05 1.69592256239000E-05 
1.72491199174000E-05 1.75439695493000E-05 1.78438592241000E-05 1.81488750944000E-05 
1.84591047853000E-05 1.87746374199000E-05 1.90955636444000E-05 1.94219756549000E-05 
1.97539672231000E-05 2.00916337239000E-05 2.04350721623000E-05 2.07843812014000E-05 
2.11396611911000E-05 2.15010141964000E-05 2.18685440269000E-05 2.22423562670000E-05 
2.26225583057000E-05 2.30092593676000E-05 2.34025705444000E-05 2.38026048269000E-05 
2.42094771372000E-05 2.46233043618000E-05 2.50442053853000E-05 2.54723011243000E-05 
2.59077145625000E-05 2.63505707858000E-05 2.68009970182000E-05 2.72591226584000E-05 
2.77250793170000E-05 2.81990008544000E-05 2.86810234191000E-05 2.91712854869000E-05 
2.96699279004000E-05 3.01770939101000E-05 3.06929292150000E-05 3.12175820044000E-05 
3.17512030011000E-05 3.22939455040000E-05 3.28459654325000E-05 3.34074213713000E-05 
3.39784746158000E-05 3.45592892185000E-05 3.51500320363000E-05 3.57508727781000E-05 
3.63619840539000E-05 3.69835414240000E-05 3.76157234499000E-05 3.82587117452000E-05 
3.89126910282000E-05 3.95778491742000E-05 4.02543772705000E-05 4.09424696703000E-05 
4.16423240495000E-05 4.23541414625000E-05 4.30781264008000E-05 4.38144868512000E-05 
4.45634343558000E-05 4.53251840728000E-05 4.60999548381000E-05 4.68879692283000E-05 
4.76894536248000E-05 4.85046382785000E-05 4.93337573761000E-05 5.01770491076000E-05 
5.10347557343000E-05 5.19071236588000E-05 5.27944034955000E-05 5.36968501426000E-05 
5.46147228558000E-05 5.55482853219000E-05 5.64978057356000E-05 5.74635568755000E-05 
5.84458161834000E-05 5.94448658433000E-05 6.04609928628000E-05 6.14944891556000E-05 
6.25456516252000E-05 6.36147822502000E-05 6.47021881711000E-05 6.58081817786000E-05 
6.69330808033000E-05 6.80772084069000E-05 6.92408932752000E-05 7.04244697122000E-05 
7.16282777366000E-05 7.28526631791000E-05 7.40979777820000E-05 7.53645793000000E-05 
7.66528316033000E-05 7.79631047818000E-05 7.92957752517000E-05 8.06512258634000E-05 
8.20298460116000E-05 8.34320317472000E-05 8.48581858910000E-05 8.63087181496000E-05 
8.77840452327000E-05 8.92845909734000E-05 9.08107864493000E-05 9.23630701069000E-05 
9.39418878872000E-05 9.55476933541000E-05 9.71809478243000E-05 9.88421205003000E-05 
1.00531688605000E-04 1.02250137518000E-04 1.03997960917000E-04 1.05775660918000E-04 
1.07583748220000E-04 1.09422742250000E-04 1.11293171317000E-04 1.13195572759000E-04 
1.15130493098000E-04 1.17098488199000E-04 1.19100123431000E-04 1.21135973823000E-04 
1.23206624237000E-04 1.25312669529000E-04 1.27454714727000E-04 1.29633375197000E-04 
1.31849276828000E-04 1.34103056205000E-04 1.36395360795000E-04 1.38726849132000E-04 
1.41098191009000E-04 1.43510067666000E-04 1.45963171988000E-04 1.48458208705000E-04 
1.50995894593000E-04 1.53576958679000E-04 1.56202142453000E-04 1.58872200081000E-04 
1.61587898617000E-04 1.64350018230000E-04 1.67159352422000E-04 1.70016708262000E-04 
1.72922906612000E-04 1.75878782367000E-04 1.78885184693000E-04 1.81942977270000E-04 
1.85053038545000E-04 1.88216261976000E-04 1.91433556298000E-04 1.94705845775000E-04 
1.98034070475000E-04 2.01419186530000E-04 2.04862166421000E-04 2.08363999247000E-04 
2.11925691019000E-04 2.15548264940000E-04 2.19232761707000E-04 2.22980239805000E-04 
2.26791775810000E-04 2.30668464704000E-04 2.34611420184000E-04 2.38621774985000E-04 
2.42700681204000E-04 2.46849310633000E-04 2.51068855092000E-04 2.55360526775000E-04 
2.59725558596000E-04 2.64165204543000E-04 2.68680740042000E-04 2.73273462319000E-04 
2.77944690773000E-04 2.82695767358000E-04 2.87528056967000E-04 2.92442947823000E-04 
2.97441851879000E-04 3.02526205223000E-04 3.07697468492000E-04 3.12957127289000E-04 
3.18306692612000E-04 3.23747701289000E-04 3.29281716416000E-04 3.34910327808000E-04 
3.40635152457000E-04 3.46457834993000E-04 3.52380048161000E-04 3.58403493298000E-04 
3.64529900823000E-04 3.70761030735000E-04 3.77098673116000E-04 3.83544648649000E-04 
3.90100809138000E-04 3.96769038040000E-04 4.03551251009000E-04 4.10449396443000E-04 
4.17465456047000E-04 4.24601445397000E-04 4.31859414527000E-04 4.39241448509000E-04 
4.46749668060000E-04 4.54386230146000E-04 4.62153328603000E-04 4.70053194768000E-04 
4.78088098120000E-04 4.86260346931000E-04 4.94572288930000E-04 5.03026311977000E-04 
5.11624844750000E-04 5.20370357441000E-04 5.29265362465000E-04 5.38312415187000E-04 
5.47514114648000E-04 5.56873104320000E-04 5.66392072859000E-04 5.76073754880000E-04 
5.85920931743000E-04 5.95936432352000E-04 6.06123133966000E-04 6.16483963028000E-04 
6.27021896002000E-04 6.37739960234000E-04 6.48641234816000E-04 6.59728851473000E-04 
6.71005995462000E-04 6.82475906489000E-04 6.94141879638000E-04 7.06007266317000E-04 
7.18075475221000E-04 7.30349973314000E-04 7.42834286822000E-04 7.55532002245000E-04 
7.68446767393000E-04 7.81582292427000E-04 7.94942350929000E-04 8.08530780986000E-04 
8.22351486290000E-04 8.36408437263000E-04 8.50705672195000E-04 8.65247298405000E-04 
8.80037493421000E-04 8.95080506178000E-04 9.10380658245000E-04 9.25942345058000E-04 
9.41770037189000E-04 9.57868281628000E-04 9.74241703088000E-04 9.90895005338000E-04 
1.00783297255000E-03 1.02506047067000E-03 1.04258244883000E-03 1.06040394075000E-03 
1.07853006620000E-03 1.09696603247000E-03 1.11571713585000E-03 1.13478876318000E-03 
1.15418639336000E-03 1.17391559896000E-03 1.19398204779000E-03 1.21439150456000E-03 
1.23514983251000E-03 1.25626299510000E-03 1.27773705775000E-03 1.29957818952000E-03 
1.32179266496000E-03 1.34438686586000E-03 1.36736728309000E-03 1.39074051847000E-03 
1.41451328670000E-03 1.43869241722000E-03 1.46328485624000E-03 1.48829766867000E-03 
1.51373804023000E-03 1.53961327944000E-03 1.56593081974000E-03 1.59269822167000E-03 
1.61992317498000E-03 1.64761350087000E-03 1.67577715423000E-03 1.70442222595000E-03 
1.73355694519000E-03 1.76318968179000E-03 1.79332894867000E-03 1.82398340425000E-03 
1.85516185497000E-03 1.88687325779000E-03 1.91912672279000E-03 1.95193151576000E-03 
1.98529706088000E-03 2.01923294342000E-03 2.05374891252000E-03 2.08885488394000E-03 
2.12456094295000E-03 2.16087734720000E-03 2.19781452970000E-03 2.23538310179000E-03 