<UPF version="2.0.1">
  <PP_INFO>
Generated using Vanderbilt code, version   7  3  6
Author: kfg        Generation date:    3    2 2014
Automatically converted from original USPP format to UPF.v1.

Futher converted to UPF.v2 format.
Convert Q_IJ to Q_IJL use the same routine as 'upflib/upf_to_internal.f90' of QE.
The conversion is done by using PseudoPotentialIO.jl package.
Converted by: JYU on 2024-04-30

0        The Pseudo was generated with a Non-Relativistic Calculation
1.15000000000E+00    Local Potential cutoff radius
nl pn  l   occ               Rcut            Rcut US             E pseu
2S  2  0  2.00      0.00000000000      1.15000000000     -1.36392854000
2P  2  1  3.00      0.00000000000      1.20000000000     -0.52145229200
</PP_INFO>
  <PP_HEADER element="N" pseudo_type="US" relativistic="scalar" is_ultrasoft="T" is_paw="F" is_coulomb="F" has_so="F" has_wfc="F" has_gipaw="F" core_correction="T" functional="PBE" z_valence="5.0" total_psenergy="-19.5274326361" wfc_cutoff="0.0" rho_cutoff="0.0" l_max="1" mesh_size="729" number_of_wfc="2" number_of_proj="4"/>
  <PP_MESH>
    <PP_R>
0.00000000000000E+00 6.05297272571000E-06 1.22094125726000E-05 1.84710881666000E-05 
2.48397983660000E-05 3.13173727780000E-05 3.79056722844000E-05 4.46065895761000E-05 
5.14220496971000E-05 5.83540105970000E-05 6.54044636943000E-05 7.25754344475000E-05 
7.98689829378000E-05 8.72872044606000E-05 9.48322301273000E-05 1.02506227478000E-04 
1.10311401103000E-04 1.18249993279000E-04 1.26324284608000E-04 1.34536594679000E-04 
1.42889282730000E-04 1.51384748326000E-04 1.60025432050000E-04 1.68813816203000E-04 
1.77752425517000E-04 1.86843827884000E-04 1.96090635085000E-04 2.05495503551000E-04 
2.15061135118000E-04 2.24790277806000E-04 2.34685726610000E-04 2.44750324302000E-04 
2.54986962245000E-04 2.65398581227000E-04 2.75988172305000E-04 2.86758777663000E-04 
2.97713491488000E-04 3.08855460858000E-04 3.20187886644000E-04 3.31714024434000E-04 
3.43437185462000E-04 3.55360737568000E-04 3.67488106156000E-04 3.79822775185000E-04 
3.92368288167000E-04 4.05128249184000E-04 4.18106323927000E-04 4.31306240746000E-04 
4.44731791720000E-04 4.58386833752000E-04 4.72275289670000E-04 4.86401149358000E-04 
5.00768470904000E-04 5.15381381761000E-04 5.30244079934000E-04 5.45360835191000E-04 
5.60735990281000E-04 5.76373962190000E-04 5.92279243404000E-04 6.08456403203000E-04 
6.24910088971000E-04 6.41645027535000E-04 6.58666026518000E-04 6.75977975724000E-04 
6.93585848540000E-04 7.11494703369000E-04 7.29709685077000E-04 7.48236026476000E-04 
7.67079049826000E-04 7.86244168363000E-04 8.05736887854000E-04 8.25562808180000E-04 
8.45727624945000E-04 8.66237131110000E-04 8.87097218660000E-04 9.08313880294000E-04 
9.29893211148000E-04 9.51841410547000E-04 9.74164783783000E-04 9.96869743930000E-04 
1.01996281368000E-03 1.04345062723000E-03 1.06733993218000E-03 1.09163759145000E-03 
1.11635058530000E-03 1.14148601329000E-03 1.16705109634000E-03 1.19305317880000E-03 
1.21949973058000E-03 1.24639834925000E-03 1.27375676226000E-03 1.30158282917000E-03 
1.32988454385000E-03 1.35867003685000E-03 1.38794757768000E-03 1.41772557720000E-03 
1.44801259007000E-03 1.47881731716000E-03 1.51014860807000E-03 1.54201546366000E-03 
1.57442703868000E-03 1.60739264434000E-03 1.64092175102000E-03 1.67502399099000E-03 
1.70970916116000E-03 1.74498722590000E-03 1.78086831992000E-03 1.81736275117000E-03 
1.85448100379000E-03 1.89223374114000E-03 1.93063180885000E-03 1.96968623793000E-03 
2.00940824797000E-03 2.04980925034000E-03 2.09090085146000E-03 2.13269485615000E-03 
2.17520327102000E-03 2.21843830792000E-03 2.26241238744000E-03 2.30713814247000E-03 
2.35262842187000E-03 2.39889629411000E-03 2.44595505105000E-03 2.49381821177000E-03 
2.54249952642000E-03 2.59201298020000E-03 2.64237279737000E-03 2.69359344534000E-03 
2.74568963880000E-03 2.79867634397000E-03 2.85256878293000E-03 2.90738243792000E-03 
2.96313305584000E-03 3.01983665276000E-03 3.07750951854000E-03 3.13616822147000E-03 
3.19582961307000E-03 3.25651083288000E-03 3.31822931347000E-03 3.38100278534000E-03 
3.44484928211000E-03 3.50978714563000E-03 3.57583503131000E-03 3.64301191341000E-03 
3.71133709056000E-03 3.78083019125000E-03 3.85151117952000E-03 3.92340036064000E-03 
3.99651838698000E-03 4.07088626394000E-03 4.14652535596000E-03 4.22345739270000E-03 
4.30170447524000E-03 4.38128908245000E-03 4.46223407745000E-03 4.54456271418000E-03 
4.62829864405000E-03 4.71346592278000E-03 4.80008901728000E-03 4.88819281269000E-03 
4.97780261952000E-03 5.06894418093000E-03 5.16164368015000E-03 5.25592774792000E-03 
5.35182347026000E-03 5.44935839613000E-03 5.54856054544000E-03 5.64945841704000E-03 
5.75208099694000E-03 5.85645776663000E-03 5.96261871153000E-03 6.07059432961000E-03 
6.18041564020000E-03 6.29211419282000E-03 6.40572207632000E-03 6.52127192802000E-03 
6.63879694318000E-03 6.75833088446000E-03 6.87990809163000E-03 7.00356349149000E-03 
7.12933260784000E-03 7.25725157170000E-03 7.38735713173000E-03 7.51968666472000E-03 
7.65427818641000E-03 7.79117036231000E-03 7.93040251892000E-03 8.07201465493000E-03 
8.21604745277000E-03 8.36254229027000E-03 8.51154125257000E-03 8.66308714419000E-03 
8.81722350132000E-03 8.97399460437000E-03 9.13344549062000E-03 9.29562196725000E-03 
9.46057062441000E-03 9.62833884866000E-03 9.79897483656000E-03 9.97252760854000E-03 
1.01490470229000E-02 1.03285837904000E-02 1.05111894883000E-02 1.06969165758000E-02 
1.08858184086000E-02 1.10779492546000E-02 1.12733643093000E-02 1.14721197116000E-02 
1.16742725602000E-02 1.18798809296000E-02 1.20890038870000E-02 1.23017015096000E-02 
1.25180349013000E-02 1.27380662103000E-02 1.29618586475000E-02 1.31894765040000E-02 
1.34209851702000E-02 1.36564511539000E-02 1.38959420999000E-02 1.41395268095000E-02 
1.43872752597000E-02 1.46392586239000E-02 1.48955492921000E-02 1.51562208915000E-02 
1.54213483082000E-02 1.56910077080000E-02 1.59652765589000E-02 1.62442336530000E-02 
1.65279591294000E-02 1.68165344968000E-02 1.71100426573000E-02 1.74085679303000E-02 
1.77121960761000E-02 1.80210143214000E-02 1.83351113836000E-02 1.86545774967000E-02 
1.89795044371000E-02 1.93099855502000E-02 1.96461157766000E-02 1.99879916801000E-02 
2.03357114751000E-02 2.06893750547000E-02 2.10490840196000E-02 2.14149417073000E-02 
2.17870532215000E-02 2.21655254627000E-02 2.25504671588000E-02 2.29419888958000E-02 
2.33402031506000E-02 2.37452243222000E-02 2.41571687656000E-02 2.45761548243000E-02 
2.50023028649000E-02 2.54357353116000E-02 2.58765766810000E-02 2.63249536184000E-02 
2.67809949338000E-02 2.72448316390000E-02 2.77165969853000E-02 2.81964265018000E-02 
2.86844580343000E-02 2.91808317847000E-02 2.96856903516000E-02 3.01991787711000E-02 
3.07214445586000E-02 3.12526377508000E-02 3.17929109492000E-02 3.23424193640000E-02 
3.29013208583000E-02 3.34697759935000E-02 3.40479480760000E-02 3.46360032033000E-02 
3.52341103123000E-02 3.58424412276000E-02 3.64611707109000E-02 3.70904765113000E-02 
3.77305394160000E-02 3.83815433028000E-02 3.90436751924000E-02 3.97171253027000E-02 
4.04020871027000E-02 4.10987573688000E-02 4.18073362407000E-02 4.25280272796000E-02 
4.32610375260000E-02 4.40065775595000E-02 4.47648615595000E-02 4.55361073661000E-02 
4.63205365434000E-02 4.71183744428000E-02 4.79298502676000E-02 4.87551971391000E-02 
4.95946521635000E-02 5.04484565000000E-02 5.13168554300000E-02 5.22000984278000E-02 
5.30984392320000E-02 5.40121359185000E-02 5.49414509747000E-02 5.58866513748000E-02 
5.68480086566000E-02 5.78257989995000E-02 5.88203033036000E-02 5.98318072709000E-02 
6.08606014868000E-02 6.19069815041000E-02 6.29712479274000E-02 6.40537064999000E-02 
6.51546681911000E-02 6.62744492858000E-02 6.74133714755000E-02 6.85717619506000E-02 
6.97499534942000E-02 7.09482845779000E-02 7.21670994591000E-02 7.34067482797000E-02 
7.46675871668000E-02 7.59499783351000E-02 7.72542901906000E-02 7.85808974370000E-02 
7.99301811829000E-02 8.13025290513000E-02 8.26983352912000E-02 8.41180008908000E-02 
8.55619336925000E-02 8.70305485103000E-02 8.85242672488000E-02 9.00435190245000E-02 
9.15887402890000E-02 9.31603749545000E-02 9.47588745212000E-02 9.63846982071000E-02 
9.80383130799000E-02 9.97201941911000E-02 1.01430824713000E-01 1.03170696076000E-01 
1.04940308111000E-01 1.06740169195000E-01 1.08570796392000E-01 1.10432715606000E-01 
1.12326461731000E-01 1.14252578803000E-01 1.16211620158000E-01 1.18204148590000E-01 
1.20230736516000E-01 1.22291966134000E-01 1.24388429595000E-01 1.26520729174000E-01 
1.28689477438000E-01 1.30895297426000E-01 1.33138822829000E-01 1.35420698168000E-01 
1.37741578981000E-01 1.40102132012000E-01 1.42503035403000E-01 1.44944978887000E-01 
1.47428663987000E-01 1.49954804217000E-01 1.52524125289000E-01 1.55137365319000E-01 
1.57795275040000E-01 1.60498618018000E-01 1.63248170872000E-01 1.66044723494000E-01 
1.68889079281000E-01 1.71782055360000E-01 1.74724482827000E-01 1.77717206986000E-01 
1.80761087588000E-01 1.83856999080000E-01 1.87005830859000E-01 1.90208487522000E-01 
1.93465889132000E-01 1.96778971476000E-01 2.00148686338000E-01 2.03576001774000E-01 
2.07061902383000E-01 2.10607389599000E-01 2.14213481970000E-01 2.17881215458000E-01 
2.21611643731000E-01 2.25405838469000E-01 2.29264889671000E-01 2.33189905967000E-01 
2.37182014940000E-01 2.41242363443000E-01 2.45372117938000E-01 2.49572464822000E-01 
2.53844610774000E-01 2.58189783099000E-01 2.62609230081000E-01 2.67104221341000E-01 
2.71676048203000E-01 2.76326024065000E-01 2.81055484775000E-01 2.85865789015000E-01 
2.90758318693000E-01 2.95734479337000E-01 3.00795700503000E-01 3.05943436182000E-01 
3.11179165217000E-01 3.16504391733000E-01 3.21920645565000E-01 3.27429482697000E-01 
3.33032485711000E-01 3.38731264242000E-01 3.44527455439000E-01 3.50422724436000E-01 
3.56418764828000E-01 3.62517299163000E-01 3.68720079430000E-01 3.75028887570000E-01 
3.81445535981000E-01 3.87971868040000E-01 3.94609758638000E-01 4.01361114712000E-01 
4.08227875796000E-01 4.15212014577000E-01 4.22315537464000E-01 4.29540485160000E-01 
4.36888933254000E-01 4.44362992813000E-01 4.51964810988000E-01 4.59696571637000E-01 
4.67560495943000E-01 4.75558843060000E-01 4.83693910758000E-01 4.91968036086000E-01 
5.00383596038000E-01 5.08943008243000E-01 5.17648731654000E-01 5.26503267257000E-01 
5.35509158788000E-01 5.44668993466000E-01 5.53985402735000E-01 5.63461063018000E-01 
5.73098696489000E-01 5.82901071854000E-01 5.92871005145000E-01 6.03011360532000E-01 
6.13325051142000E-01 6.23815039900000E-01 6.34484340375000E-01 6.45336017651000E-01 
6.56373189206000E-01 6.67599025805000E-01 6.79016752413000E-01 6.90629649124000E-01 
7.02441052096000E-01 7.14454354518000E-01 7.26673007579000E-01 7.39100521462000E-01 
7.51740466350000E-01 7.64596473456000E-01 7.77672236061000E-01 7.90971510579000E-01 
8.04498117635000E-01 8.18255943160000E-01 8.32248939512000E-01 8.46481126608000E-01 
8.60956593079000E-01 8.75679497448000E-01 8.90654069319000E-01 9.05884610598000E-01 
9.21375496724000E-01 9.37131177929000E-01 9.53156180516000E-01 9.69455108157000E-01 
9.86032643219000E-01 1.00289354811000E+00 1.02004266663000E+00 1.03748492541000E+00 
1.05522533525000E+00 1.07326899264000E+00 1.09162108118000E+00 1.11028687305000E+00 
1.12927173059000E+00 1.14858110777000E+00 1.16822055180000E+00 1.18819570472000E+00 
1.20851230501000E+00 1.22917618922000E+00 1.25019329369000E+00 1.27156965623000E+00 
1.29331141786000E+00 1.31542482455000E+00 1.33791622908000E+00 1.36079209277000E+00 
1.38405898743000E+00 1.40772359718000E+00 1.43179272041000E+00 1.45627327171000E+00 
1.48117228387000E+00 1.50649690989000E+00 1.53225442505000E+00 1.55845222898000E+00 
1.58509784781000E+00 1.61219893631000E+00 1.63976328009000E+00 1.66779879786000E+00 
1.69631354368000E+00 1.72531570929000E+00 1.75481362643000E+00 1.78481576931000E+00 
1.81533075695000E+00 1.84636735571000E+00 1.87793448181000E+00 1.91004120388000E+00 
1.94269674555000E+00 1.97591048814000E+00 2.00969197330000E+00 2.04405090580000E+00 
2.07899715630000E+00 2.11454076419000E+00 2.15069194044000E+00 2.18746107060000E+00 
2.22485871772000E+00 2.26289562543000E+00 2.30158272099000E+00 2.34093111846000E+00 
2.38095212187000E+00 2.42165722848000E+00 2.46305813207000E+00 2.50516672634000E+00 
2.54799510825000E+00 2.59155558158000E+00 2.63586066041000E+00 2.68092307273000E+00 
2.72675576410000E+00 2.77337190136000E+00 2.82078487643000E+00 2.86900831014000E+00 
2.91805605615000E+00 2.96794220493000E+00 3.01868108779000E+00 3.07028728105000E+00 
3.12277561016000E+00 3.17616115400000E+00 3.23045924920000E+00 3.28568549457000E+00 
3.34185575552000E+00 3.39898616870000E+00 3.45709314655000E+00 3.51619338210000E+00 
3.57630385369000E+00 3.63744182991000E+00 3.69962487450000E+00 3.76287085145000E+00 
3.82719793012000E+00 3.89262459042000E+00 3.95916962816000E+00 4.02685216046000E+00 
4.09569163118000E+00 4.16570781659000E+00 4.23692083097000E+00 4.30935113244000E+00 
4.38301952884000E+00 4.45794718365000E+00 4.53415562216000E+00 4.61166673756000E+00 
4.69050279731000E+00 4.77068644947000E+00 4.85224072926000E+00 4.93518906565000E+00 
5.01955528808000E+00 5.10536363335000E+00 5.19263875252000E+00 5.28140571805000E+00 
5.37169003097000E+00 5.46351762822000E+00 5.55691489008000E+00 5.65190864780000E+00 
5.74852619122000E+00 5.84679527671000E+00 5.94674413508000E+00 6.04840147968000E+00 
6.15179651472000E+00 6.25695894358000E+00 6.36391897739000E+00 6.47270734371000E+00 
6.58335529533000E+00 6.69589461926000E+00 6.81035764586000E+00 6.92677725817000E+00 
7.04518690126000E+00 7.16562059195000E+00 7.28811292851000E+00 7.41269910060000E+00 
7.53941489944000E+00 7.66829672801000E+00 7.79938161157000E+00 7.93270720827000E+00 
8.06831181997000E+00 8.20623440326000E+00 8.34651458062000E+00 8.48919265184000E+00 
8.63430960557000E+00 8.78190713109000E+00 8.93202763032000E+00 9.08471422997000E+00 
9.24001079396000E+00 9.39796193597000E+00 9.55861303231000E+00 9.72201023494000E+00 
9.88820048471000E+00 1.00572315249000E+01 1.02291519147000E+01 1.04040110438000E+01 
1.05818591455000E+01 1.07627473124000E+01 1.09467275101000E+01 1.11338525924000E+01 
1.13241763169000E+01 1.15177533598000E+01 1.17146393322000E+01 1.19148907954000E+01 
1.21185652780000E+01 1.23257212915000E+01 1.25364183480000E+01 1.27507169767000E+01 
1.29686787413000E+01 1.31903662581000E+01 1.34158432136000E+01 1.36451743829000E+01 
1.38784256486000E+01 1.41156640191000E+01 1.43569576485000E+01 1.46023758557000E+01 
1.48519891446000E+01 1.51058692244000E+01 1.53640890298000E+01 1.56267227424000E+01 
1.58938458118000E+01 1.61655349773000E+01 1.64418682898000E+01 1.67229251347000E+01 
1.70087862541000E+01 1.72995337704000E+01 1.75952512098000E+01 1.78960235260000E+01 
1.82019371252000E+01 1.85130798905000E+01 1.88295412071000E+01 1.91514119882000E+01 
1.94787847011000E+01 1.98117533937000E+01 2.01504137214000E+01 2.04948629748000E+01 
2.08452001074000E+01 2.12015257643000E+01 2.15639423111000E+01 2.19325538630000E+01 
2.23074663149000E+01 2.26887873719000E+01 2.30766265802000E+01 2.34710953585000E+01 
2.38723070301000E+01 2.42803768552000E+01 2.46954220645000E+01 2.51175618924000E+01 
2.55469176115000E+01 2.59836125674000E+01 2.64277722141000E+01 2.68795241502000E+01 
2.73389981550000E+01 2.78063262268000E+01 2.82816426197000E+01 2.87650838831000E+01 
2.92567889001000E+01 2.97568989281000E+01 3.02655576391000E+01 3.07829111609000E+01 
3.13091081191000E+01 3.18442996800000E+01 3.23886395937000E+01 3.29422842385000E+01 
3.35053926658000E+01 3.40781266458000E+01 3.46606507139000E+01 3.52531322179000E+01 
3.58557413664000E+01 3.64686512773000E+01 3.70920380277000E+01 3.77260807046000E+01 
3.83709614562000E+01 3.90268655442000E+01 3.96939813973000E+01 4.03725006648000E+01 
4.10626182722000E+01 4.17645324770000E+01 4.24784449255000E+01 4.32045607110000E+01 
4.39430884324000E+01 4.46942402546000E+01 4.54582319688000E+01 4.62352830552000E+01 
4.70256167454000E+01 4.78294600871000E+01 4.86470440088000E+01 4.94786033866000E+01 
5.03243771115000E+01 5.11846081578000E+01 5.20595436533000E+01 5.29494349500000E+01 
5.38545376965000E+01 5.47751119112000E+01 5.57114220575000E+01 5.66637371189000E+01 
5.76323306772000E+01 5.86174809907000E+01 5.96194710738000E+01 6.06385887791000E+01 
6.16751268792000E+01 6.27293831515000E+01 6.38016604635000E+01 6.48922668596000E+01 
6.60015156500000E+01 6.71297255004000E+01 6.82772205237000E+01 6.94443303729000E+01 
7.06313903361000E+01 7.18387414328000E+01 7.30667305114000E+01 7.43157103495000E+01 
7.55860397549000E+01 7.68780836686000E+01 7.81922132698000E+01 7.95288060825000E+01 
8.08882460840000E+01 
</PP_R>
    <PP_RAB>
6.00182125101000E-06 6.10441400907000E-06 6.20876044715000E-06 6.31489054197000E-06 
6.42283478263000E-06 6.53262417945000E-06 6.64429027278000E-06 6.75786514213000E-06 
6.87338141537000E-06 6.99087227808000E-06 7.11037148311000E-06 7.23191336029000E-06 
7.35553282623000E-06 7.48126539441000E-06 7.60914718537000E-06 7.73921493707000E-06 
7.87150601547000E-06 8.00605842522000E-06 8.14291082064000E-06 8.28210251676000E-06 
8.42367350067000E-06 8.56766444297000E-06 8.71411670948000E-06 8.86307237309000E-06 
9.01457422588000E-06 9.16866579141000E-06 9.32539133720000E-06 9.48479588747000E-06 
9.64692523605000E-06 9.81182595958000E-06 9.97954543084000E-06 1.01501318324000E-05 
1.03236341704000E-05 1.05001022887000E-05 1.06795868833000E-05 1.08621395165000E-05 
1.10478126322000E-05 1.12366595706000E-05 1.14287345840000E-05 1.16240928516000E-05 
1.18227904961000E-05 1.20248845996000E-05 1.22304332198000E-05 1.24394954067000E-05 
1.26521312199000E-05 1.28684017457000E-05 1.30883691142000E-05 1.33120965179000E-05 
1.35396482293000E-05 1.37710896197000E-05 1.40064871776000E-05 1.42459085283000E-05 
1.44894224528000E-05 1.47370989080000E-05 1.49890090465000E-05 1.52452252373000E-05 
1.55058210863000E-05 1.57708714576000E-05 1.60404524951000E-05 1.63146416443000E-05 
1.65935176742000E-05 1.68771607008000E-05 1.71656522089000E-05 1.74590750768000E-05 
1.77575135991000E-05 1.80610535115000E-05 1.83697820150000E-05 1.86837878015000E-05 
1.90031610786000E-05 1.93279935961000E-05 1.96583786723000E-05 1.99944112202000E-05 
2.03361877755000E-05 2.06838065241000E-05 2.10373673300000E-05 2.13969717645000E-05 
2.17627231349000E-05 2.21347265145000E-05 2.25130887727000E-05 2.28979186057000E-05 
2.32893265677000E-05 2.36874251024000E-05 2.40923285761000E-05 2.45041533095000E-05 
2.49230176120000E-05 2.53490418152000E-05 2.57823483075000E-05 2.62230615697000E-05 
2.66713082099000E-05 2.71272170009000E-05 2.75909189165000E-05 2.80625471691000E-05 
2.85422372485000E-05 2.90301269603000E-05 2.95263564658000E-05 3.00310683222000E-05 
3.05444075234000E-05 3.10665215419000E-05 3.15975603708000E-05 3.21376765673000E-05 
3.26870252965000E-05 3.32457643754000E-05 3.38140543192000E-05 3.43920583864000E-05 
3.49799426265000E-05 3.55778759273000E-05 3.61860300633000E-05 3.68045797455000E-05 
3.74337026713000E-05 3.80735795754000E-05 3.87243942823000E-05 3.93863337582000E-05 
4.00595881657000E-05 4.07443509177000E-05 4.14408187333000E-05 4.21491916942000E-05 
4.28696733022000E-05 4.36024705378000E-05 4.43477939195000E-05 4.51058575641000E-05 
4.58768792488000E-05 4.66610804732000E-05 4.74586865231000E-05 4.82699265352000E-05 
4.90950335631000E-05 4.99342446442000E-05 5.07878008675000E-05 5.16559474432000E-05 
5.25389337730000E-05 5.34370135218000E-05 5.43504446905000E-05 5.52794896903000E-05 
5.62244154177000E-05 5.71854933317000E-05 5.81629995314000E-05 5.91572148353000E-05 
6.01684248623000E-05 6.11969201135000E-05 6.22429960555000E-05 6.33069532059000E-05 
6.43890972190000E-05 6.54897389736000E-05 6.66091946630000E-05 6.77477858851000E-05 
6.89058397350000E-05 7.00836888994000E-05 7.12816717514000E-05 7.25001324483000E-05 
7.37394210303000E-05 7.49998935211000E-05 7.62819120300000E-05 7.75858448561000E-05 
7.89120665940000E-05 8.02609582417000E-05 8.16329073096000E-05 8.30283079320000E-05 
8.44475609807000E-05 8.58910741795000E-05 8.73592622218000E-05 8.88525468898000E-05 
9.03713571750000E-05 9.19161294024000E-05 9.34873073552000E-05 9.50853424023000E-05 
9.67106936282000E-05 9.83638279650000E-05 1.00045220326000E-04 1.01755353743000E-04 
1.03494719504000E-04 1.05263817296000E-04 1.07063155345000E-04 1.08893250566000E-04 
1.10754628712000E-04 1.12647824519000E-04 1.14573381867000E-04 1.16531853929000E-04 
1.18523803339000E-04 1.20549802343000E-04 1.22610432974000E-04 1.24706287209000E-04 
1.26837967147000E-04 1.29006085178000E-04 1.31211264162000E-04 1.33454137602000E-04 
1.35735349834000E-04 1.38055556205000E-04 1.40415423267000E-04 1.42815628962000E-04 
1.45256862823000E-04 1.47739826171000E-04 1.50265232312000E-04 1.52833806746000E-04 
1.55446287375000E-04 1.58103424715000E-04 1.60805982109000E-04 1.63554735950000E-04 
1.66350475902000E-04 1.69194005127000E-04 1.72086140515000E-04 1.75027712921000E-04 
1.78019567402000E-04 1.81062563461000E-04 1.84157575290000E-04 1.87305492026000E-04 
1.90507218007000E-04 1.93763673024000E-04 1.97075792595000E-04 2.00444528228000E-04 
2.03870847695000E-04 2.07355735311000E-04 2.10900192218000E-04 2.14505236669000E-04 
2.18171904323000E-04 2.21901248544000E-04 2.25694340699000E-04 2.29552270471000E-04 
2.33476146169000E-04 2.37467095045000E-04 2.41526263623000E-04 2.45654818022000E-04 
2.49853944297000E-04 2.54124848775000E-04 2.58468758405000E-04 2.62886921107000E-04 
2.67380606135000E-04 2.71951104437000E-04 2.76599729029000E-04 2.81327815370000E-04 
2.86136721749000E-04 2.91027829671000E-04 2.96002544257000E-04 3.01062294646000E-04 
3.06208534406000E-04 3.11442741953000E-04 3.16766420973000E-04 3.22181100856000E-04 
3.27688337135000E-04 3.33289711932000E-04 3.38986834414000E-04 3.44781341253000E-04 
3.50674897100000E-04 3.56669195060000E-04 3.62765957177000E-04 3.68966934934000E-04 
3.75273909751000E-04 3.81688693501000E-04 3.88213129026000E-04 3.94849090672000E-04 
4.01598484820000E-04 4.08463250442000E-04 4.15445359651000E-04 4.22546818273000E-04 
4.29769666419000E-04 4.37115979075000E-04 4.44587866692000E-04 4.52187475800000E-04 
4.59916989620000E-04 4.67778628691000E-04 4.75774651510000E-04 4.83907355180000E-04 
4.92179076069000E-04 5.00592190483000E-04 5.09149115346000E-04 5.17852308898000E-04 
5.26704271396000E-04 5.35707545840000E-04 5.44864718696000E-04 5.54178420641000E-04 
5.63651327323000E-04 5.73286160124000E-04 5.83085686946000E-04 5.93052723002000E-04 
6.03190131629000E-04 6.13500825109000E-04 6.23987765504000E-04 6.34653965510000E-04 
6.45502489318000E-04 6.56536453501000E-04 6.67759027903000E-04 6.79173436551000E-04 
6.90782958585000E-04 7.02590929196000E-04 7.14600740585000E-04 7.26815842939000E-04 
7.39239745420000E-04 7.51876017175000E-04 7.64728288360000E-04 7.77800251185000E-04 
7.91095660970000E-04 8.04618337231000E-04 8.18372164769000E-04 8.32361094795000E-04 
8.46589146056000E-04 8.61060405996000E-04 8.75779031929000E-04 8.90749252231000E-04 
9.05975367556000E-04 9.21461752073000E-04 9.37212854720000E-04 9.53233200485000E-04 
9.69527391702000E-04 9.86100109377000E-04 1.00295611453000E-03 1.02010024957000E-03 
1.03753743967000E-03 1.05527269420000E-03 1.07331110816000E-03 1.09165786362000E-03 
1.11031823127000E-03 1.12929757186000E-03 1.14860133779000E-03 1.16823507465000E-03 
1.18820442285000E-03 1.20851511918000E-03 1.22917299852000E-03 1.25018399548000E-03 
1.27155414611000E-03 1.29328958964000E-03 1.31539657024000E-03 1.33788143883000E-03 
1.36075065486000E-03 1.38401078822000E-03 1.40766852110000E-03 1.43173064991000E-03 
1.45620408723000E-03 1.48109586380000E-03 1.50641313055000E-03 1.53216316065000E-03 
1.55835335157000E-03 1.58499122726000E-03 1.61208444025000E-03 1.63964077391000E-03 
1.66766814464000E-03 1.69617460415000E-03 1.72516834180000E-03 1.75465768694000E-03 
1.78465111127000E-03 1.81515723134000E-03 1.84618481095000E-03 1.87774276373000E-03 
1.90984015567000E-03 1.94248620774000E-03 1.97569029850000E-03 2.00946196685000E-03 
2.04381091474000E-03 2.07874700996000E-03 2.11428028897000E-03 2.15042095979000E-03 
2.18717940494000E-03 2.22456618441000E-03 2.26259203870000E-03 2.30126789189000E-03 
2.34060485483000E-03 2.38061422824000E-03 2.42130750605000E-03 2.46269637866000E-03 
2.50479273628000E-03 2.54760867238000E-03 2.59115648716000E-03 2.63544869106000E-03 
2.68049800836000E-03 2.72631738088000E-03 2.77291997162000E-03 2.82031916861000E-03 
2.86852858872000E-03 2.91756208158000E-03 2.96743373358000E-03 3.01815787186000E-03 
3.06974906850000E-03 3.12222214465000E-03 3.17559217479000E-03 3.22987449112000E-03 
3.28508468789000E-03 3.34123862592000E-03 3.39835243715000E-03 3.45644252928000E-03 
3.51552559046000E-03 3.57561859411000E-03 3.63673880380000E-03 3.69890377817000E-03 
3.76213137601000E-03 3.82643976141000E-03 3.89184740890000E-03 3.95837310884000E-03 
4.02603597277000E-03 4.09485543894000E-03 4.16485127783000E-03 4.23604359790000E-03 
4.30845285133000E-03 4.38209983988000E-03 4.45700572093000E-03 4.53319201347000E-03 
4.61068060436000E-03 4.68949375456000E-03 4.76965410557000E-03 4.85118468591000E-03 
4.93410891774000E-03 5.01845062358000E-03 5.10423403317000E-03 5.19148379043000E-03 
5.28022496052000E-03 5.37048303707000E-03 5.46228394947000E-03 5.55565407035000E-03 
5.65062022313000E-03 5.74720968977000E-03 5.84545021853000E-03 5.94537003203000E-03 
6.04699783528000E-03 6.15036282401000E-03 6.25549469295000E-03 6.36242364448000E-03 
6.47118039719000E-03 6.58179619482000E-03 6.69430281512000E-03 6.80873257909000E-03 
6.92511836017000E-03 7.04349359375000E-03 7.16389228673000E-03 7.28634902735000E-03 
7.41089899505000E-03 7.53757797062000E-03 7.66642234648000E-03 7.79746913713000E-03 
7.93075598977000E-03 8.06632119515000E-03 8.20420369851000E-03 8.34444311084000E-03 
8.48707972020000E-03 8.63215450333000E-03 8.77970913742000E-03 8.92978601204000E-03 
9.08242824139000E-03 9.23767967661000E-03 9.39558491845000E-03 9.55618933003000E-03 
9.71953904988000E-03 9.88568100521000E-03 1.00546629254000E-02 1.02265333557000E-02 
1.04013416711000E-02 1.05791380907000E-02 1.07599736920000E-02 1.09439004255000E-02 
1.11309711298000E-02 1.13212395468000E-02 1.15147603367000E-02 1.17115890945000E-02 
1.19117823653000E-02 1.21153976605000E-02 1.23224934751000E-02 1.25331293037000E-02 
1.27473656577000E-02 1.29652640832000E-02 1.31868871782000E-02 1.34122986107000E-02 
1.36415631371000E-02 1.38747466206000E-02 1.41119160503000E-02 1.43531395604000E-02 
1.45984864497000E-02 1.48480272017000E-02 1.51018335046000E-02 1.53599782721000E-02 
1.56225356640000E-02 1.58895811082000E-02 1.61611913215000E-02 1.64374443324000E-02 
1.67184195029000E-02 1.70041975519000E-02 1.72948605777000E-02 1.75904920824000E-02 
1.78911769950000E-02 1.81970016965000E-02 1.85080540446000E-02 1.88244233984000E-02 
1.91462006447000E-02 1.94734782241000E-02 1.98063501569000E-02 2.01449120708000E-02 
2.04892612281000E-02 2.08394965537000E-02 2.11957186634000E-02 2.15580298929000E-02 
2.19265343273000E-02 2.23013378306000E-02 2.26825480768000E-02 2.30702745801000E-02 
2.34646287269000E-02 2.38657238074000E-02 2.42736750486000E-02 2.46885996468000E-02 
2.51106168021000E-02 2.55398477516000E-02 2.59764158051000E-02 2.64204463803000E-02 
2.68720670384000E-02 2.73314075214000E-02 2.77985997889000E-02 2.82737780562000E-02 
2.87570788328000E-02 2.92486409617000E-02 2.97486056591000E-02 3.02571165553000E-02 
3.07743197356000E-02 3.13003637824000E-02 3.18353998180000E-02 3.23795815480000E-02 
3.29330653052000E-02 3.34960100948000E-02 3.40685776398000E-02 3.46509324280000E-02 
3.52432417586000E-02 3.58456757905000E-02 3.64584075914000E-02 3.70816131873000E-02 
3.77154716132000E-02 3.83601649642000E-02 3.90158784483000E-02 3.96828004393000E-02 
4.03611225309000E-02 4.10510395921000E-02 4.17527498225000E-02 4.24664548100000E-02 
4.31923595882000E-02 4.39306726955000E-02 4.46816062350000E-02 4.54453759354000E-02 
4.62222012128000E-02 4.70123052342000E-02 4.78159149812000E-02 4.86332613152000E-02 
4.94645790442000E-02 5.03101069895000E-02 5.11700880550000E-02 5.20447692966000E-02 
5.29344019934000E-02 5.38392417195000E-02 5.47595484179000E-02 5.56955864749000E-02 
5.66476247962000E-02 5.76159368839000E-02 5.86008009154000E-02 5.96024998229000E-02 
6.06213213754000E-02 6.16575582603000E-02 6.27115081687000E-02 6.37834738798000E-02 
6.48737633487000E-02 6.59826897944000E-02 6.71105717901000E-02 6.82577333544000E-02 
6.94245040447000E-02 7.06112190516000E-02 7.18182192953000E-02 7.30458515237000E-02 
7.42944684117000E-02 7.55644286628000E-02 7.68560971121000E-02 7.81698448308000E-02 
7.95060492333000E-02 8.08650941852000E-02 8.22473701139000E-02 8.36532741204000E-02 
8.50832100939000E-02 8.65375888271000E-02 8.80168281351000E-02 8.95213529746000E-02 
9.10515955665000E-02 9.26079955198000E-02 9.41909999583000E-02 9.58010636483000E-02 
9.74386491301000E-02 9.91042268503000E-02 1.00798275297000E-01 1.02521281138000E-01 
1.04273739359000E-01 1.06056153407000E-01 1.07869035336000E-01 1.09712905952000E-01 
1.11588294962000E-01 1.13495741131000E-01 1.15435792429000E-01 1.17409006197000E-01 
1.19415949300000E-01 1.21457198295000E-01 1.23533339593000E-01 1.25644969628000E-01 
1.27792695032000E-01 1.29977132804000E-01 1.32198910492000E-01 1.34458666368000E-01 
1.36757049617000E-01 1.39094720521000E-01 1.41472350645000E-01 1.43890623039000E-01 
1.46350232424000E-01 1.48851885399000E-01 1.51396300640000E-01 1.53984209109000E-01 
1.56616354261000E-01 1.59293492261000E-01 1.62016392199000E-01 1.64785836312000E-01 
1.67602620206000E-01 1.70467553090000E-01 1.73381458003000E-01 1.76345172054000E-01 
1.79359546661000E-01 1.82425447795000E-01 1.85543756229000E-01 1.88715367795000E-01 
1.91941193633000E-01 1.95222160463000E-01 1.98559210841000E-01 2.01953303438000E-01 
2.05405413312000E-01 2.08916532186000E-01 2.12487668737000E-01 2.16119848883000E-01 
2.19814116080000E-01 2.23571531619000E-01 2.27393174933000E-01 2.31280143905000E-01 
2.35233555187000E-01 2.39254544518000E-01 2.43344267050000E-01 2.47503897681000E-01 