<UPF version="2.0.1">
  <PP_INFO>
Generated using Vanderbilt code, version   7  3  6
Author: kfg        Generation date:   23    9   15
Automatically converted from original USPP format to UPF.v1.

Futher converted to UPF.v2 format.
Convert Q_IJ to Q_IJL use the same routine as 'upflib/upf_to_internal.f90' of QE.
The conversion is done by using PseudoPotentialIO.jl package.
Converted by: JYU on 2024-04-30

1        The Pseudo was generated with a Scalar-Relativistic Calculation
1.60000000000E+00    Local Potential cutoff radius
nl pn  l   occ               Rcut            Rcut US             E pseu
2S  2  0  2.00      0.00000000000      1.37000000000     -4.17127678500
2P  2  1  6.00      0.00000000000      1.47000000000     -2.10741686400
3S  3  0  1.00      0.00000000000      1.37000000000     -0.20167644900
</PP_INFO>
  <PP_HEADER element="Na" pseudo_type="US" relativistic="scalar" is_ultrasoft="T" is_paw="F" is_coulomb="F" has_so="F" has_wfc="F" has_gipaw="F" core_correction="F" functional="PBE" z_valence="9.0" total_psenergy="-95.2512409729" wfc_cutoff="0.0" rho_cutoff="0.0" l_max="2" mesh_size="819" number_of_wfc="3" number_of_proj="5"/>
  <PP_MESH>
    <PP_R>
0.00000000000000E+00 5.20186466933000E-09 1.05354151697000E-08 1.60039851438000E-08 
2.16109926260000E-08 2.73599421783000E-08 3.32544270814000E-08 3.92981315803000E-08 
4.54948331869000E-08 5.18484050416000E-08 5.83628183336000E-08 6.50421447832000E-08 
7.18905591869000E-08 7.89123420266000E-08 8.61118821452000E-08 9.34936794896000E-08 
1.01062347923000E-07 1.08822618111000E-07 1.16779340474000E-07 1.24937488222000E-07 
1.33302160463000E-07 1.41878585391000E-07 1.50672123549000E-07 1.59688271186000E-07 
1.68932663687000E-07 1.78411079098000E-07 1.88129441737000E-07 1.98093825899000E-07 
2.08310459646000E-07 2.18785728707000E-07 2.29526180468000E-07 2.40538528059000E-07 
2.51829654557000E-07 2.63406617283000E-07 2.75276652216000E-07 2.87447178514000E-07 
2.99925803152000E-07 3.12720325676000E-07 3.25838743081000E-07 3.39289254802000E-07 
3.53080267850000E-07 3.67220402054000E-07 3.81718495461000E-07 3.96583609849000E-07 
4.11825036400000E-07 4.27452301501000E-07 4.43475172701000E-07 4.59903664817000E-07 
4.76748046191000E-07 4.94018845109000E-07 5.11726856384000E-07 5.29883148098000E-07 
5.48499068525000E-07 5.67586253222000E-07 5.87156632299000E-07 6.07222437882000E-07 
6.27796211752000E-07 6.48890813186000E-07 6.70519426998000E-07 6.92695571776000E-07 
7.15433108332000E-07 7.38746248366000E-07 7.62649563349000E-07 7.87157993633000E-07 
8.12286857783000E-07 8.38051862157000E-07 8.64469110723000E-07 8.91555115120000E-07 
9.19326804982000E-07 9.47801538521000E-07 9.76997113372000E-07 1.00693177772000E-06 
1.03762424170000E-06 1.06909368911000E-06 1.10135978937000E-06 1.13444270985000E-06 
1.16836312844000E-06 1.20314224653000E-06 1.23880180217000E-06 1.27536408377000E-06 
1.31285194393000E-06 1.35128881379000E-06 1.39069871765000E-06 1.43110628797000E-06 
1.47253678080000E-06 1.51501609155000E-06 1.55857077118000E-06 1.60322804276000E-06 
1.64901581856000E-06 1.69596271743000E-06 1.74409808269000E-06 1.79345200053000E-06 
1.84405531875000E-06 1.89593966607000E-06 1.94913747189000E-06 2.00368198658000E-06 
2.05960730223000E-06 2.11694837399000E-06 2.17574104189000E-06 2.23602205326000E-06 
2.29782908571000E-06 2.36120077062000E-06 2.42617671738000E-06 2.49279753807000E-06 
2.56110487286000E-06 2.63114141606000E-06 2.70295094279000E-06 2.77657833635000E-06 
2.85206961625000E-06 2.92947196700000E-06 3.00883376758000E-06 3.09020462172000E-06 
3.17363538883000E-06 3.25917821587000E-06 3.34688656988000E-06 3.43681527145000E-06 
3.52902052894000E-06 3.62355997363000E-06 3.72049269576000E-06 3.81987928143000E-06 
3.92178185050000E-06 4.02626409539000E-06 4.13339132089000E-06 4.24323048503000E-06 
4.35585024084000E-06 4.47132097934000E-06 4.58971487350000E-06 4.71110592337000E-06 
4.83557000229000E-06 4.96318490437000E-06 5.09403039308000E-06 5.22818825111000E-06 
5.36574233148000E-06 5.50677860997000E-06 5.65138523885000E-06 5.79965260197000E-06 
5.95167337126000E-06 6.10754256465000E-06 6.26735760545000E-06 6.43121838327000E-06 
6.59922731643000E-06 6.77148941598000E-06 6.94811235135000E-06 7.12920651761000E-06 
7.31488510451000E-06 7.50526416723000E-06 7.70046269886000E-06 7.90060270484000E-06 
8.10580927920000E-06 8.31621068272000E-06 8.53193842313000E-06 8.75312733729000E-06 
8.97991567546000E-06 9.21244518776000E-06 9.45086121268000E-06 9.69531276801000E-06 
9.94595264392000E-06 1.02029374985000E-05 1.04664279556000E-05 1.07365887055000E-05 
1.10135886072000E-05 1.12976007949000E-05 1.15888027853000E-05 1.18873765893000E-05 
1.21935088250000E-05 1.25073908352000E-05 1.28292188063000E-05 1.31591938913000E-05 
1.34975223353000E-05 1.38444156047000E-05 1.42000905190000E-05 1.45647693866000E-05 
1.49386801437000E-05 1.53220564967000E-05 1.57151380682000E-05 1.61181705472000E-05 
1.65314058419000E-05 1.69551022379000E-05 1.73895245592000E-05 1.78349443339000E-05 
1.82916399640000E-05 1.87598968989000E-05 1.92400078146000E-05 1.97322727960000E-05 
2.02369995247000E-05 2.07545034714000E-05 2.12851080929000E-05 2.18291450343000E-05 
2.23869543365000E-05 2.29588846483000E-05 2.35452934450000E-05 2.41465472510000E-05 
2.47630218696000E-05 2.53951026174000E-05 2.60431845656000E-05 2.67076727864000E-05 
2.73889826065000E-05 2.80875398669000E-05 2.88037811886000E-05 2.95381542456000E-05 
3.02911180450000E-05 3.10631432138000E-05 3.18547122928000E-05 3.26663200385000E-05 
3.34984737320000E-05 3.43516934966000E-05 3.52265126223000E-05 3.61234778997000E-05 
3.70431499612000E-05 3.79861036317000E-05 3.89529282881000E-05 3.99442282271000E-05 
4.09606230436000E-05 4.20027480174000E-05 4.30712545105000E-05 4.41668103742000E-05 
4.52901003667000E-05 4.64418265807000E-05 4.76227088826000E-05 4.88334853624000E-05 
5.00749127946000E-05 5.13477671119000E-05 5.26528438897000E-05 5.39909588434000E-05 
5.53629483384000E-05 5.67696699129000E-05 5.82120028135000E-05 5.96908485454000E-05 
6.12071314352000E-05 6.27617992091000E-05 6.43558235851000E-05 6.59902008802000E-05 
6.76659526336000E-05 6.93841262446000E-05 7.11457956276000E-05 7.29520618834000E-05 
7.48040539872000E-05 7.67029294942000E-05 7.86498752636000E-05 8.06461081998000E-05 
8.26928760134000E-05 8.47914580009000E-05 8.69431658443000E-05 8.91493444311000E-05 
9.14113726947000E-05 9.37306644764000E-05 9.61086694091000E-05 9.85468738234000E-05 
1.01046801676000E-04 1.03610015504000E-04 1.06238117399000E-04 1.08932750009000E-04 
1.11695597570000E-04 1.14528386949000E-04 1.17432888733000E-04 1.20410918329000E-04 
1.23464337104000E-04 1.26595053543000E-04 1.29805024446000E-04 1.33096256149000E-04 
1.36470805779000E-04 1.39930782540000E-04 1.43478349030000E-04 1.47115722593000E-04 
1.50845176706000E-04 1.54669042400000E-04 1.58589709714000E-04 1.62609629194000E-04 
1.66731313420000E-04 1.70957338579000E-04 1.75290346075000E-04 1.79733044177000E-04 
1.84288209717000E-04 1.88958689822000E-04 1.93747403694000E-04 1.98657344434000E-04 
2.03691580916000E-04 2.08853259702000E-04 2.14145607008000E-04 2.19571930723000E-04 
2.25135622478000E-04 2.30840159760000E-04 2.36689108091000E-04 2.42686123254000E-04 
2.48834953578000E-04 2.55139442284000E-04 2.61603529880000E-04 2.68231256633000E-04 
2.75026765088000E-04 2.81994302658000E-04 2.89138224282000E-04 2.96462995143000E-04 
3.03973193460000E-04 3.11673513354000E-04 3.19568767773000E-04 3.27663891510000E-04 
3.35963944280000E-04 3.44474113886000E-04 3.53199719461000E-04 3.62146214793000E-04 
3.71319191732000E-04 3.80724383689000E-04 3.90367669213000E-04 4.00255075673000E-04 
4.10392783019000E-04 4.20787127648000E-04 4.31444606364000E-04 4.42371880438000E-04 
4.53575779773000E-04 4.65063307170000E-04 4.76841642707000E-04 4.88918148228000E-04 
5.01300371941000E-04 5.13996053141000E-04 5.27013127040000E-04 5.40359729733000E-04 
5.54044203283000E-04 5.68075100929000E-04 5.82461192441000E-04 5.97211469593000E-04 
6.12335151789000E-04 6.27841691823000E-04 6.43740781786000E-04 6.60042359128000E-04 
6.76756612865000E-04 6.93893989950000E-04 7.11465201802000E-04 7.29481230999000E-04 
7.47953338147000E-04 7.66893068913000E-04 7.86312261247000E-04 8.06223052775000E-04 
8.26637888390000E-04 8.47569528029000E-04 8.69031054649000E-04 8.91035882401000E-04 
9.13597765021000E-04 9.36730804418000E-04 9.60449459495000E-04 9.84768555184000E-04 
1.00970329171000E-03 1.03526925410000E-03 1.06148242191000E-03 1.08835917922000E-03 
1.11591632488000E-03 1.14417108300000E-03 1.17314111373000E-03 1.20284452428000E-03 
1.23329988025000E-03 1.26452621723000E-03 1.29654305269000E-03 1.32937039820000E-03 
1.36302877192000E-03 1.39753921142000E-03 1.43292328686000E-03 1.46920311443000E-03 
1.50640137021000E-03 1.54454130432000E-03 1.58364675546000E-03 1.62374216581000E-03 
1.66485259630000E-03 1.70700374230000E-03 1.75022194963000E-03 1.79453423110000E-03 
1.83996828331000E-03 1.88655250403000E-03 1.93431600991000E-03 1.98328865469000E-03 
2.03350104789000E-03 2.08498457387000E-03 2.13777141151000E-03 2.19189455431000E-03 
2.24738783099000E-03 2.30428592667000E-03 2.36262440449000E-03 2.42243972790000E-03 
2.48376928344000E-03 2.54665140407000E-03 2.61112539317000E-03 2.67723154906000E-03 
2.74501119026000E-03 2.81450668125000E-03 2.88576145897000E-03 2.95882005997000E-03 
3.03372814827000E-03 3.11053254384000E-03 3.18928125195000E-03 3.27002349309000E-03 
3.35280973380000E-03 3.43769171817000E-03 3.52472250021000E-03 3.61395647698000E-03 
3.70544942263000E-03 3.79925852323000E-03 3.89544241251000E-03 3.99406120855000E-03 
4.09517655129000E-03 4.19885164112000E-03 4.30515127834000E-03 4.41414190369000E-03 
4.52589163986000E-03 4.64047033407000E-03 4.75794960173000E-03 4.87840287121000E-03 
5.00190542973000E-03 5.12853447040000E-03 5.25836914049000E-03 5.39149059091000E-03 
5.52798202689000E-03 5.66792876002000E-03 5.81141826157000E-03 5.95854021715000E-03 
6.10938658276000E-03 6.26405164230000E-03 6.42263206646000E-03 6.58522697317000E-03 
6.75193798954000E-03 6.92286931538000E-03 7.09812778834000E-03 7.27782295066000E-03 
7.46206711768000E-03 7.65097544799000E-03 7.84466601545000E-03 8.04325988297000E-03 
8.24688117818000E-03 8.45565717102000E-03 8.66971835329000E-03 8.88919852018000E-03 
9.11423485395000E-03 9.34496800963000E-03 9.58154220295000E-03 9.82410530049000E-03 
1.00728089121000E-02 1.03278084856000E-02 1.05892634040000E-02 1.08573370852000E-02 
1.11321970840000E-02 1.14140151967000E-02 1.17029675689000E-02 1.19992348053000E-02 
1.23030020825000E-02 1.26144592649000E-02 1.29338010234000E-02 1.32612269570000E-02 
1.35969417176000E-02 1.39411551378000E-02 1.42940823622000E-02 1.46559439819000E-02 
1.50269661720000E-02 1.54073808336000E-02 1.57974257383000E-02 1.61973446767000E-02 
1.66073876112000E-02 1.70278108321000E-02 1.74588771174000E-02 1.79008558977000E-02 
1.83540234241000E-02 1.88186629411000E-02 1.92950648634000E-02 1.97835269578000E-02 
2.02843545290000E-02 2.07978606105000E-02 2.13243661604000E-02 2.18642002617000E-02 
2.24177003284000E-02 2.29852123159000E-02 2.35670909379000E-02 2.41636998872000E-02 
2.47754120641000E-02 2.54026098084000E-02 2.60456851392000E-02 2.67050399995000E-02 
2.73810865075000E-02 2.80742472144000E-02 2.87849553681000E-02 2.95136551844000E-02 
3.02608021244000E-02 3.10268631792000E-02 3.18123171620000E-02 3.26176550070000E-02 
3.34433800765000E-02 3.42900084758000E-02 3.51580693750000E-02 3.60481053405000E-02 
3.69606726737000E-02 3.78963417590000E-02 3.88556974199000E-02 3.98393392850000E-02 
4.08478821625000E-02 4.18819564245000E-02 4.29422084011000E-02 4.40293007842000E-02 
4.51439130420000E-02 4.62867418435000E-02 4.74585014938000E-02 4.86599243809000E-02 
4.98917614331000E-02 5.11547825889000E-02 5.24497772774000E-02 5.37775549125000E-02 
5.51389453985000E-02 5.65347996487000E-02 5.79659901175000E-02 5.94334113455000E-02 
6.09379805187000E-02 6.24806380420000E-02 6.40623481263000E-02 6.56840993921000E-02 
6.73469054866000E-02 6.90518057178000E-02 7.07998657038000E-02 7.25921780391000E-02 
7.44298629771000E-02 7.63140691309000E-02 7.82459741905000E-02 8.02267856596000E-02 
8.22577416097000E-02 8.43401114545000E-02 8.64751967428000E-02 8.86643319726000E-02 
9.09088854246000E-02 9.32102600177000E-02 9.55698941861000E-02 9.79892627777000E-02 
1.00469877977000E-01 1.03013290249000E-01 1.05621089309000E-01 1.08294905117000E-01 
1.11036408894000E-01 1.13847314169000E-01 1.16729377851000E-01 1.19684401322000E-01 
1.22714231568000E-01 1.25820762332000E-01 1.29005935297000E-01 1.32271741299000E-01 
1.35620221574000E-01 1.39053469030000E-01 1.42573629560000E-01 1.46182903378000E-01 
1.49883546397000E-01 1.53677871641000E-01 1.57568250685000E-01 1.61557115144000E-01 
1.65646958187000E-01 1.69840336100000E-01 1.74139869880000E-01 1.78548246876000E-01 
1.83068222467000E-01 1.87702621785000E-01 1.92454341480000E-01 1.97326351532000E-01 
2.02321697106000E-01 2.07443500455000E-01 2.12694962872000E-01 2.18079366694000E-01 
2.23600077348000E-01 2.29260545457000E-01 2.35064308999000E-01 2.41014995514000E-01 
2.47116324375000E-01 2.53372109112000E-01 2.59786259794000E-01 2.66362785473000E-01 
2.73105796692000E-01 2.80019508054000E-01 2.87108240851000E-01 2.94376425774000E-01 
3.01828605673000E-01 3.09469438406000E-01 3.17303699739000E-01 3.25336286343000E-01 
3.33572218845000E-01 3.42016644970000E-01 3.50674842761000E-01 3.59552223872000E-01 
3.68654336956000E-01 3.77986871130000E-01 3.87555659531000E-01 3.97366682964000E-01 
4.07426073637000E-01 4.17740118998000E-01 4.28315265660000E-01 4.39158123435000E-01 
4.50275469461000E-01 4.61674252441000E-01 4.73361596986000E-01 4.85344808068000E-01 
4.97631375582000E-01 5.10228979033000E-01 5.23145492334000E-01 5.36388988726000E-01 
5.49967745826000E-01 5.63890250798000E-01 5.78165205661000E-01 5.92801532727000E-01 
6.07808380177000E-01 6.23195127779000E-01 6.38971392751000E-01 6.55147035772000E-01 
6.71732167146000E-01 6.88737153119000E-01 7.06172622362000E-01 7.24049472610000E-01 
7.42378877476000E-01 7.61172293436000E-01 7.80441466986000E-01 8.00198441987000E-01 
8.20455567191000E-01 8.41225503962000E-01 8.62521234184000E-01 8.84356068385000E-01 
9.06743654044000E-01 9.29697984133000E-01 9.53233405854000E-01 9.77364629613000E-01 
1.00210673821000E+00 1.02747519627000E+00 1.05348585990000E+00 1.08015498662000E+00 
1.10749924549000E+00 1.13553572757000E+00 1.16428195658000E+00 1.19375589983000E+00 
1.22397597952000E+00 1.25496108416000E+00 1.28673058046000E+00 1.31930432539000E+00 
1.35270267859000E+00 1.38694651514000E+00 1.42205723853000E+00 1.45805679412000E+00 
1.49496768280000E+00 1.53281297507000E+00 1.57161632548000E+00 1.61140198738000E+00 
1.65219482810000E+00 1.69402034451000E+00 1.73690467890000E+00 1.78087463539000E+00 
1.82595769662000E+00 1.87218204099000E+00 1.91957656020000E+00 1.96817087738000E+00 
2.01799536556000E+00 2.06908116665000E+00 2.12146021096000E+00 2.17516523710000E+00 
2.23022981243000E+00 2.28668835414000E+00 2.34457615062000E+00 2.40392938366000E+00 
2.46478515094000E+00 2.52718148930000E+00 2.59115739849000E+00 2.65675286554000E+00 
2.72400888973000E+00 2.79296750829000E+00 2.86367182258000E+00 2.93616602512000E+00 
3.01049542712000E+00 3.08670648690000E+00 3.16484683884000E+00 3.24496532321000E+00 
3.32711201667000E+00 3.41133826357000E+00 3.49769670806000E+00 3.58624132699000E+00 
3.67702746361000E+00 3.77011186223000E+00 3.86555270361000E+00 3.96340964140000E+00 
4.06374383936000E+00 4.16661800964000E+00 4.27209645193000E+00 4.38024509371000E+00 
4.49113153138000E+00 4.60482507259000E+00 4.72139677950000E+00 4.84091951322000E+00 
4.96346797935000E+00 5.08911877466000E+00 5.21795043501000E+00 5.35004348437000E+00 
5.48548048518000E+00 5.62434609000000E+00 5.76672709434000E+00 5.91271249097000E+00 
6.06239352551000E+00 6.21586375348000E+00 6.37321909876000E+00 6.53455791358000E+00 
6.69998103993000E+00 6.86959187267000E+00 7.04349642408000E+00 7.22180339018000E+00 
7.40462421860000E+00 7.59207317834000E+00 7.78426743108000E+00 7.98132710449000E+00 
8.18337536729000E+00 8.39053850621000E+00 8.60294600496000E+00 8.82073062515000E+00 
9.04402848924000E+00 9.27297916567000E+00 9.50772575607000E+00 9.74841498470000E+00 
9.99519729016000E+00 1.02482269194000E+01 1.05076620243000E+01 1.07736647600000E+01 
1.10464013871000E+01 1.13260423748000E+01 1.16127625078000E+01 1.19067409955000E+01 
1.22081615841000E+01 1.25172126711000E+01 1.28340874237000E+01 1.31589838989000E+01 
1.34921051675000E+01 1.38336594411000E+01 1.41838602024000E+01 1.45429263381000E+01 
1.49110822763000E+01 1.52885581265000E+01 1.56755898233000E+01 1.60724192742000E+01 
1.64792945104000E+01 1.68964698423000E+01 1.73242060180000E+01 1.77627703866000E+01 
1.82124370650000E+01 1.86734871095000E+01 1.91462086915000E+01 1.96308972773000E+01 
2.01278558131000E+01 2.06373949141000E+01 2.11598330588000E+01 2.16954967882000E+01 
2.22447209094000E+01 2.28078487055000E+01 2.33852321496000E+01 2.39772321251000E+01 
2.45842186514000E+01 2.52065711148000E+01 2.58446785058000E+01 2.64989396623000E+01 
2.71697635188000E+01 2.78575693621000E+01 2.85627870932000E+01 2.92858574962000E+01 
3.00272325136000E+01 3.07873755289000E+01 3.15667616562000E+01 3.23658780373000E+01 
3.31852241459000E+01 3.40253121000000E+01 3.48866669819000E+01 3.57698271664000E+01 
3.66753446575000E+01 3.76037854330000E+01 3.85557297986000E+01 3.95317727505000E+01 
4.05325243475000E+01 4.15586100917000E+01 4.26106713202000E+01 4.36893656055000E+01 
4.47953671666000E+01 4.59293672906000E+01 4.70920747644000E+01 4.82842163180000E+01 
4.95065370787000E+01 5.07598010368000E+01 5.20447915230000E+01 5.33623116983000E+01 
5.47131850556000E+01 5.60982559348000E+01 5.75183900502000E+01 5.89744750319000E+01 
6.04674209804000E+01 6.19981610355000E+01 6.35676519596000E+01 6.51768747356000E+01 
6.68268351801000E+01 6.85185645722000E+01 7.02531202977000E+01 7.20315865105000E+01 
7.38550748097000E+01 7.57247249351000E+01 7.76417054787000E+01 7.96072146158000E+01 
8.16224808536000E+01 8.36887637992000E+01 8.58073549465000E+01 8.79795784840000E+01 
9.02067921222000E+01 9.24903879421000E+01 9.48317932655000E+01 9.72324715467000E+01 
9.96939232880000E+01 1.02217686977000E+02 1.04805340048000E+02 1.07458499868000E+02 
1.10178824748000E+02 1.12968014981000E+02 1.15827813901000E+02 1.18760008975000E+02 
1.21766432921000E+02 1.24848964852000E+02 1.28009531449000E+02 1.31250108172000E+02 
1.34572720484000E+02 1.37979445128000E+02 1.41472411416000E+02 1.45053802567000E+02 
1.48725857067000E+02 1.52490870069000E+02 1.56351194829000E+02 
</PP_R>
    <PP_RAB>
5.13711228859000E-09 5.26715890533000E-09 5.40049766784000E-09 5.53721191719000E-09 
5.67738710424000E-09 5.82111084305000E-09 5.96847296563000E-09 6.11956557810000E-09 
6.27448311827000E-09 6.43332241463000E-09 6.59618274693000E-09 6.76316590817000E-09 
6.93437626826000E-09 7.10992083926000E-09 7.28990934222000E-09 7.47445427583000E-09 
7.66367098668000E-09 7.85767774137000E-09 8.05659580043000E-09 8.26054949414000E-09 
8.46966630018000E-09 8.68407692337000E-09 8.90391537733000E-09 9.12931906824000E-09 
9.36042888076000E-09 9.59738926604000E-09 9.84034833203000E-09 1.00894579361000E-08 
1.03448737797000E-08 1.06067555063000E-08 1.08752668003000E-08 1.11505754901000E-08 
1.14328536525000E-08 1.17222777207000E-08 1.20190285940000E-08 1.23232917514000E-08 
1.26352573674000E-08 1.29551204305000E-08 1.32830808656000E-08 1.36193436587000E-08 
1.39641189848000E-08 1.43176223400000E-08 1.46800746751000E-08 1.50517025348000E-08 
1.54327381986000E-08 1.58234198261000E-08 1.62239916061000E-08 1.66347039090000E-08 
1.70558134434000E-08 1.74875834163000E-08 1.79302836982000E-08 1.83841909910000E-08 
1.88495890017000E-08 1.93267686191000E-08 1.98160280961000E-08 2.03176732356000E-08 
2.08320175824000E-08 2.13593826182000E-08 2.19000979636000E-08 2.24545015830000E-08 
2.30229399969000E-08 2.36057684977000E-08 2.42033513723000E-08 2.48160621294000E-08 
2.54442837332000E-08 2.60884088425000E-08 2.67488400567000E-08 2.74259901666000E-08 
2.81202824132000E-08 2.88321507516000E-08 2.95620401229000E-08 3.03104067315000E-08 
3.10777183311000E-08 3.18644545163000E-08 3.26711070228000E-08 3.34981800347000E-08 
3.43461904997000E-08 3.52156684517000E-08 3.61071573429000E-08 3.70212143829000E-08 
3.79584108869000E-08 3.89193326334000E-08 3.99045802298000E-08 4.09147694878000E-08 
4.19505318086000E-08 4.30125145774000E-08 4.41013815680000E-08 4.52178133577000E-08 
4.63625077527000E-08 4.75361802242000E-08 4.87395643559000E-08 4.99734123019000E-08 
5.12384952573000E-08 5.25356039402000E-08 5.38655490858000E-08 5.52291619530000E-08 
5.66272948443000E-08 5.80608216383000E-08 5.95306383358000E-08 6.10376636202000E-08 
6.25828394312000E-08 6.41671315542000E-08 6.57915302232000E-08 6.74570507403000E-08 
6.91647341100000E-08 7.09156476900000E-08 7.27108858584000E-08 7.45515706973000E-08 
7.64388526948000E-08 7.83739114635000E-08 8.03579564782000E-08 8.23922278315000E-08 
8.44779970094000E-08 8.66165676853000E-08 8.88092765357000E-08 9.10574940749000E-08 
9.33626255120000E-08 9.57261116294000E-08 9.81494296826000E-08 1.00634094324000E-07 
1.03181658551000E-07 1.05793714673000E-07 1.08471895311000E-07 1.11217874414000E-07 
1.14033368309000E-07 1.16920136772000E-07 1.19879984126000E-07 1.22914760373000E-07 
1.26026362346000E-07 1.29216734898000E-07 1.32487872116000E-07 1.35841818566000E-07 
1.39280670576000E-07 1.42806577538000E-07 1.46421743260000E-07 1.50128427338000E-07 
1.53928946570000E-07 1.57825676405000E-07 1.61821052425000E-07 1.65917571870000E-07 
1.70117795199000E-07 1.74424347688000E-07 1.78839921072000E-07 1.83367275229000E-07 
1.88009239901000E-07 1.92768716469000E-07 1.97648679760000E-07 2.02652179910000E-07 
2.07782344269000E-07 2.13042379357000E-07 2.18435572867000E-07 2.23965295721000E-07 
2.29635004175000E-07 2.35448241983000E-07 2.41408642606000E-07 2.47519931489000E-07 
2.53785928387000E-07 2.60210549751000E-07 2.66797811180000E-07 2.73551829925000E-07 
2.80476827470000E-07 2.87577132161000E-07 2.94857181922000E-07 3.02321527020000E-07 
3.09974832914000E-07 3.17821883168000E-07 3.25867582446000E-07 3.34116959571000E-07 
3.42575170672000E-07 3.51247502406000E-07 3.60139375263000E-07 3.69256346953000E-07 
3.78604115881000E-07 3.88188524706000E-07 3.98015563995000E-07 4.08091375968000E-07 
4.18422258335000E-07 4.29014668235000E-07 4.39875226268000E-07 4.51010720637000E-07 
4.62428111388000E-07 4.74134534761000E-07 4.86137307654000E-07 4.98443932188000E-07 
5.11062100406000E-07 5.23999699074000E-07 5.37264814611000E-07 5.50865738146000E-07 
5.64810970700000E-07 5.79109228497000E-07 5.93769448413000E-07 6.08800793563000E-07 
6.24212659028000E-07 6.40014677724000E-07 6.56216726428000E-07 6.72828931947000E-07 
6.89861677452000E-07 7.07325608962000E-07 7.25231642003000E-07 7.43590968428000E-07 
7.62415063415000E-07 7.81715692635000E-07 8.01504919610000E-07 8.21795113251000E-07 
8.42598955589000E-07 8.63929449703000E-07 8.85799927847000E-07 9.08224059781000E-07 
9.31215861318000E-07 9.54789703081000E-07 9.78960319490000E-07 1.00374281797000E-06 
1.02915268838000E-06 1.05520581272000E-06 1.08191847505000E-06 1.10930737164000E-06 
1.13738962146000E-06 1.16618277681000E-06 1.19570483435000E-06 1.22597424635000E-06 
1.25700993215000E-06 1.28883129009000E-06 1.32145820953000E-06 1.35491108337000E-06 
1.38921082075000E-06 1.42437886011000E-06 1.46043718263000E-06 1.49740832592000E-06 
1.53531539817000E-06 1.57418209252000E-06 1.61403270191000E-06 1.65489213429000E-06 
1.69678592813000E-06 1.73974026840000E-06 1.78378200298000E-06 1.82893865937000E-06 
1.87523846197000E-06 1.92271034964000E-06 1.97138399388000E-06 2.02128981728000E-06 
2.07245901262000E-06 2.12492356231000E-06 2.17871625840000E-06 2.23387072307000E-06 
2.29042142966000E-06 2.34840372420000E-06 2.40785384752000E-06 2.46880895787000E-06 
2.53130715419000E-06 2.59538749989000E-06 2.66109004725000E-06 2.72845586253000E-06 
2.79752705153000E-06 2.86834678601000E-06 2.94095933060000E-06 3.01541007052000E-06 
3.09174553988000E-06 3.17001345085000E-06 3.25026272343000E-06 3.33254351601000E-06 
3.41690725677000E-06 3.50340667579000E-06 3.59209583804000E-06 3.68303017711000E-06 
3.77626652994000E-06 3.87186317228000E-06 3.96987985514000E-06 4.07037784214000E-06 
4.17341994779000E-06 4.27907057677000E-06 4.38739576415000E-06 4.49846321671000E-06 
4.61234235522000E-06 4.72910435784000E-06 4.84882220463000E-06 4.97157072314000E-06 
5.09742663520000E-06 5.22646860483000E-06 5.35877728748000E-06 5.49443538037000E-06 
5.63352767424000E-06 5.77614110629000E-06 5.92236481456000E-06 6.07229019364000E-06 
6.22601095175000E-06 6.38362316938000E-06 6.54522535929000E-06 6.71091852812000E-06 
6.88080623949000E-06 7.05499467875000E-06 7.23359271934000E-06 7.41671199085000E-06 
7.60446694880000E-06 7.79697494613000E-06 7.99435630662000E-06 8.19673440004000E-06 
8.40423571928000E-06 8.61698995943000E-06 8.83513009881000E-06 9.05879248211000E-06 
9.28811690560000E-06 9.52324670451000E-06 9.76432884262000E-06 1.00115140041000E-05 
1.02649566878000E-05 1.05248153035000E-05 1.07912522714000E-05 1.10644341232000E-05 
1.13445316066000E-05 1.16317197915000E-05 1.19261781800000E-05 1.22280908180000E-05 
1.25376464108000E-05 1.28550384408000E-05 1.31804652883000E-05 1.35141303556000E-05 
1.38562421944000E-05 1.42070146355000E-05 1.45666669233000E-05 1.49354238521000E-05 
1.53135159070000E-05 1.57011794079000E-05 1.60986566569000E-05 1.65061960905000E-05 
1.69240524339000E-05 1.73524868610000E-05 1.77917671573000E-05 1.82421678873000E-05 
1.87039705660000E-05 1.91774638351000E-05 1.96629436435000E-05 2.01607134317000E-05 
2.06710843220000E-05 2.11943753130000E-05 2.17309134785000E-05 2.22810341723000E-05 
2.28450812378000E-05 2.34234072227000E-05 2.40163735997000E-05 2.46243509919000E-05 
2.52477194051000E-05 2.58868684648000E-05 2.65421976600000E-05 2.72141165927000E-05 
2.79030452342000E-05 2.86094141873000E-05 2.93336649556000E-05 3.00762502194000E-05 
3.08376341186000E-05 3.16182925430000E-05 3.24187134295000E-05 3.32393970673000E-05 
3.40808564102000E-05 3.49436173978000E-05 3.58282192838000E-05 3.67352149731000E-05 
3.76651713676000E-05 3.86186697204000E-05 3.95963059988000E-05 4.05986912575000E-05 
4.16264520199000E-05 4.26802306697000E-05 4.37606858532000E-05 4.48684928898000E-05 
4.60043441950000E-05 4.71689497130000E-05 4.83630373599000E-05 4.95873534796000E-05 
5.08426633095000E-05 5.21297514589000E-05 5.34494224000000E-05 5.48025009700000E-05 
5.61898328871000E-05 5.76122852789000E-05 5.90707472244000E-05 6.05661303099000E-05 
6.20993691984000E-05 6.36714222141000E-05 6.52832719415000E-05 6.69359258389000E-05 
6.86304168689000E-05 7.03678041436000E-05 7.21491735865000E-05 7.39756386116000E-05 
7.58483408189000E-05 7.77684507083000E-05 7.97371684110000E-05 8.17557244396000E-05 
8.38253804574000E-05 8.59474300666000E-05 8.81231996176000E-05 9.03540490369000E-05 
9.26413726781000E-05 9.49866001930000E-05 9.73911974251000E-05 9.98566673259000E-05 
1.02384550894000E-04 1.04976428140000E-04 1.07633919071000E-04 1.10358684705000E-04 
1.13152428109000E-04 1.16016895464000E-04 1.18953877156000E-04 1.21965208893000E-04 
1.25052772855000E-04 1.28218498872000E-04 1.31464365625000E-04 1.34792401885000E-04 
1.38204687785000E-04 1.41703356113000E-04 1.45290593652000E-04 1.48968642541000E-04 
1.52739801681000E-04 1.56606428170000E-04 1.60570938774000E-04 1.64635811441000E-04 
1.68803586851000E-04 1.73076869997000E-04 1.77458331821000E-04 1.81950710879000E-04 
1.86556815054000E-04 1.91279523312000E-04 1.96121787499000E-04 2.01086634187000E-04 
2.06177166567000E-04 2.11396566388000E-04 2.16748095944000E-04 2.22235100117000E-04 
2.27861008461000E-04 2.33629337353000E-04 2.39543692186000E-04 2.45607769625000E-04 
2.51825359914000E-04 2.58200349252000E-04 2.64736722212000E-04 2.71438564243000E-04 
2.78310064211000E-04 2.85355517030000E-04 2.92579326336000E-04 2.99986007245000E-04 
3.07580189174000E-04 3.15366618734000E-04 3.23350162697000E-04 3.31535811037000E-04 
3.39928680051000E-04 3.48534015557000E-04 3.57357196167000E-04 3.66403736659000E-04 
3.75679291413000E-04 3.85189657953000E-04 3.94940780569000E-04 4.04938754029000E-04 
4.15189827393000E-04 4.25700407914000E-04 4.36477065047000E-04 4.47526534555000E-04 
4.58855722715000E-04 4.70471710639000E-04 4.82381758697000E-04 4.94593311057000E-04 
5.07114000337000E-04 5.19951652376000E-04 5.33114291122000E-04 5.46610143655000E-04 
5.60447645322000E-04 5.74635445011000E-04 5.89182410559000E-04 6.04097634293000E-04 
6.19390438714000E-04 6.35070382321000E-04 6.51147265591000E-04 6.67631137099000E-04 
6.84532299800000E-04 7.01861317473000E-04 7.19629021316000E-04 7.37846516724000E-04 
7.56525190223000E-04 7.75676716593000E-04 7.95313066162000E-04 8.15446512286000E-04 
8.36089639026000E-04 8.57255349007000E-04 8.78956871488000E-04 9.01207770625000E-04 
9.24021953956000E-04 9.47413681088000E-04 9.71397572611000E-04 9.95988619239000E-04 
1.02120219118000E-03 1.04705404772000E-03 1.07356034714000E-03 1.10073765672000E-03 
1.12860296316000E-03 1.15717368320000E-03 1.18646767446000E-03 1.21650324663000E-03 
1.24729917294000E-03 1.27887470183000E-03 1.31124956905000E-03 1.34444400992000E-03 
1.37847877207000E-03 1.41337512833000E-03 1.44915489005000E-03 1.48584042075000E-03 
1.52345465008000E-03 1.56202108816000E-03 1.60156384027000E-03 1.64210762191000E-03 
1.68367777428000E-03 1.72630028006000E-03 1.77000177971000E-03 1.81480958809000E-03 
1.86075171154000E-03 1.90785686538000E-03 1.95615449188000E-03 2.00567477860000E-03 
2.05644867735000E-03 2.10850792347000E-03 2.16188505568000E-03 2.21661343643000E-03 
2.27272727273000E-03 2.33026163756000E-03 2.38925249176000E-03 2.44973670656000E-03 
2.51175208654000E-03 2.57533739333000E-03 2.64053236984000E-03 2.70737776503000E-03 
2.77591535945000E-03 2.84618799135000E-03 2.91823958338000E-03 2.99211517015000E-03 
3.06786092631000E-03 3.14552419541000E-03 3.22515351953000E-03 3.30679866959000E-03 