<UPF version="2.0.1">
  <PP_INFO>
Generated using Vanderbilt code, version   7  3  6
Author: kfg        Generation date:   13    5 2013
Automatically converted from original USPP format to UPF.v1.

Futher converted to UPF.v2 format.
Convert Q_IJ to Q_IJL use the same routine as 'upflib/upf_to_internal.f90' of QE.
The conversion is done by using PseudoPotentialIO.jl package.
Converted by: JYU on 2024-04-30

1        The Pseudo was generated with a Scalar-Relativistic Calculation
1.80000000000E+00    Local Potential cutoff radius
nl pn  l   occ               Rcut            Rcut US             E pseu
4S  4  0  2.00      0.00000000000      1.80000000000     -4.29170630700
4P  4  1  6.00      0.00000000000      2.00000000000     -2.53726946200
4D  4  2  4.00      0.00000000000      2.20000000000     -0.22346874800
5S  5  0  1.00      0.00000000000      1.80000000000     -0.29266359100
5P  5  1  0.00      0.00000000000      2.00000000000     -0.08163975400
</PP_INFO>
  <PP_HEADER element="Nb" pseudo_type="US" relativistic="scalar" is_ultrasoft="T" is_paw="F" is_coulomb="F" has_so="F" has_wfc="F" has_gipaw="F" core_correction="T" functional="PBE" z_valence="13.0" total_psenergy="-117.185095144" wfc_cutoff="0.0" rho_cutoff="0.0" l_max="2" mesh_size="887" number_of_wfc="5" number_of_proj="6"/>
  <PP_MESH>
    <PP_R>
0.00000000000000E+00 1.03343436780000E-06 2.08453385385000E-06 3.15360041868000E-06 
4.24094118444000E-06 5.34686852307000E-06 6.47170014612000E-06 7.61575919592000E-06 
8.77937433853000E-06 9.96287985803000E-06 1.11666157527000E-05 1.23909278325000E-05 
1.36361678186000E-05 1.49026934445000E-05 1.61908685583000E-05 1.75010632279000E-05 
1.88336538469000E-05 2.01890232427000E-05 2.15675607868000E-05 2.29696625063000E-05 
2.43957311978000E-05 2.58461765434000E-05 2.73214152280000E-05 2.88218710590000E-05 
3.03479750883000E-05 3.19001657362000E-05 3.34788889170000E-05 3.50845981672000E-05 
3.67177547762000E-05 3.83788279181000E-05 4.00682947871000E-05 4.17866407345000E-05 
4.35343594076000E-05 4.53119528924000E-05 4.71199318569000E-05 4.89588156986000E-05 
5.08291326931000E-05 5.27314201465000E-05 5.46662245490000E-05 5.66341017326000E-05 
5.86356170302000E-05 6.06713454385000E-05 6.27418717828000E-05 6.48477908853000E-05 
6.69897077358000E-05 6.91682376656000E-05 7.13840065242000E-05 7.36376508590000E-05 
7.59298180986000E-05 7.82611667381000E-05 8.06323665289000E-05 8.30440986709000E-05 
8.54970560080000E-05 8.79919432275000E-05 9.05294770620000E-05 9.31103864960000E-05 
9.57354129748000E-05 9.84053106178000E-05 1.01120846435000E-04 1.03882800547000E-04 
1.06691966410000E-04 1.09549151043000E-04 1.12455175259000E-04 1.15410873904000E-04 
1.18417096092000E-04 1.21474705453000E-04 1.24584580379000E-04 1.27747614276000E-04 
1.30964715824000E-04 1.34236809233000E-04 1.37564834512000E-04 1.40949747738000E-04 
1.44392521332000E-04 1.47894144336000E-04 1.51455622698000E-04 1.55077979562000E-04 
1.58762255562000E-04 1.62509509118000E-04 1.66320816743000E-04 1.70197273354000E-04 
1.74139992580000E-04 1.78150107089000E-04 1.82228768909000E-04 1.86377149760000E-04 
1.90596441392000E-04 1.94887855927000E-04 1.99252626204000E-04 2.03692006137000E-04 
2.08207271074000E-04 2.12799718164000E-04 2.17470666728000E-04 2.22221458638000E-04 
2.27053458706000E-04 2.31968055072000E-04 2.36966659603000E-04 2.42050708303000E-04 
2.47221661720000E-04 2.52481005369000E-04 2.57830250158000E-04 2.63270932820000E-04 
2.68804616360000E-04 2.74432890497000E-04 2.80157372126000E-04 2.85979705779000E-04 
2.91901564100000E-04 2.97924648324000E-04 3.04050688767000E-04 3.10281445322000E-04 
3.16618707965000E-04 3.23064297268000E-04 3.29620064925000E-04 3.36287894280000E-04 
3.43069700873000E-04 3.49967432984000E-04 3.56983072200000E-04 3.64118633976000E-04 
3.71376168223000E-04 3.78757759889000E-04 3.86265529563000E-04 3.93901634081000E-04 
4.01668267149000E-04 4.09567659970000E-04 4.17602081887000E-04 4.25773841033000E-04 
4.34085284998000E-04 4.42538801497000E-04 4.51136819064000E-04 4.59881807741000E-04 
4.68776279794000E-04 4.77822790435000E-04 4.87023938549000E-04 4.96382367449000E-04 
5.05900765631000E-04 5.15581867545000E-04 5.25428454385000E-04 5.35443354886000E-04 
5.45629446133000E-04 5.55989654395000E-04 5.66526955958000E-04 5.77244377985000E-04 
5.88144999384000E-04 5.99231951694000E-04 6.10508419979000E-04 6.21977643753000E-04 
6.33642917900000E-04 6.45507593629000E-04 6.57575079431000E-04 6.69848842061000E-04 
6.82332407533000E-04 6.95029362135000E-04 7.07943353457000E-04 7.21078091436000E-04 
7.34437349431000E-04 7.48024965296000E-04 7.61844842492000E-04 7.75900951201000E-04 
7.90197329472000E-04 8.04738084377000E-04 8.19527393194000E-04 8.34569504605000E-04 
8.49868739917000E-04 8.65429494306000E-04 8.81256238074000E-04 8.97353517938000E-04 
9.13725958336000E-04 9.30378262754000E-04 9.47315215075000E-04 9.64541680958000E-04 
9.82062609234000E-04 9.99883033327000E-04 1.01800807270000E-03 1.03644293432000E-03 
1.05519291418000E-03 1.07426339877000E-03 1.09365986669000E-03 1.11338789015000E-03 
1.13345313664000E-03 1.15386137052000E-03 1.17461845467000E-03 1.19573035221000E-03 
1.21720312817000E-03 1.23904295127000E-03 1.26125609566000E-03 1.28384894276000E-03 
1.30682798304000E-03 1.33019981796000E-03 1.35397116177000E-03 1.37814884352000E-03 
1.40273980901000E-03 1.42775112273000E-03 1.45318996995000E-03 1.47906365876000E-03 
1.50537962218000E-03 1.53214542026000E-03 1.55936874230000E-03 1.58705740904000E-03 
1.61521937490000E-03 1.64386273026000E-03 1.67299570380000E-03 1.70262666487000E-03 
1.73276412587000E-03 1.76341674470000E-03 1.79459332727000E-03 1.82630283001000E-03 
1.85855436244000E-03 1.89135718981000E-03 1.92472073573000E-03 1.95865458491000E-03 
1.99316848589000E-03 2.02827235383000E-03 2.06397627340000E-03 2.10029050165000E-03 
2.13722547095000E-03 2.17479179200000E-03 2.21300025688000E-03 2.25186184215000E-03 
2.29138771198000E-03 2.33158922139000E-03 2.37247791950000E-03 2.41406555284000E-03 
2.45636406873000E-03 2.49938561872000E-03 2.54314256206000E-03 2.58764746928000E-03 
2.63291312578000E-03 2.67895253551000E-03 2.72577892469000E-03 2.77340574564000E-03 
2.82184668062000E-03 2.87111564579000E-03 2.92122679516000E-03 2.97219452468000E-03 
3.02403347641000E-03 3.07675854268000E-03 3.13038487037000E-03 3.18492786529000E-03 
3.24040319658000E-03 3.29682680125000E-03 3.35421488869000E-03 3.41258394539000E-03 
3.47195073965000E-03 3.53233232641000E-03 3.59374605213000E-03 3.65620955978000E-03 
3.71974079392000E-03 3.78435800584000E-03 3.85007975881000E-03 3.91692493343000E-03 
3.98491273302000E-03 4.05406268916000E-03 4.12439466730000E-03 4.19592887244000E-03 
4.26868585499000E-03 4.34268651661000E-03 4.41795211627000E-03 4.49450427631000E-03 
4.57236498869000E-03 4.65155662129000E-03 4.73210192432000E-03 4.81402403690000E-03 
4.89734649366000E-03 4.98209323153000E-03 5.06828859662000E-03 5.15595735117000E-03 
5.24512468073000E-03 5.33581620135000E-03 5.42805796694000E-03 5.52187647679000E-03 
5.61729868312000E-03 5.71435199890000E-03 5.81306430566000E-03 5.91346396154000E-03 
6.01557980942000E-03 6.11944118520000E-03 6.22507792626000E-03 6.33252037997000E-03 
6.44179941248000E-03 6.55294641755000E-03 6.66599332554000E-03 6.78097261266000E-03 
6.89791731022000E-03 7.01686101418000E-03 7.13783789476000E-03 7.26088270627000E-03 
7.38603079712000E-03 7.51331811992000E-03 7.64278124186000E-03 7.77445735519000E-03 
7.90838428790000E-03 8.04460051462000E-03 8.18314516764000E-03 8.32405804814000E-03 
8.46737963767000E-03 8.61315110975000E-03 8.76141434171000E-03 8.91221192670000E-03 
9.06558718595000E-03 9.22158418121000E-03 9.38024772739000E-03 9.54162340545000E-03 
9.70575757552000E-03 9.87269739015000E-03 1.00424908079000E-02 1.02151866072000E-02 
1.03908344002000E-02 1.05694846470000E-02 1.07511886705000E-02 1.09359986707000E-02 
1.11239677399000E-02 1.13151498781000E-02 1.15096000080000E-02 1.17073739916000E-02 
1.19085286453000E-02 1.21131217572000E-02 1.23212121028000E-02 1.25328594624000E-02 
1.27481246382000E-02 1.29670694718000E-02 1.31897568618000E-02 1.34162507819000E-02 
1.36466162995000E-02 1.38809195941000E-02 1.41192279765000E-02 1.43616099082000E-02 
1.46081350207000E-02 1.48588741359000E-02 1.51138992864000E-02 1.53732837359000E-02 
1.56371020006000E-02 1.59054298703000E-02 1.61783444304000E-02 1.64559240841000E-02 
1.67382485746000E-02 1.70253990082000E-02 1.73174578778000E-02 1.76145090861000E-02 
1.79166379702000E-02 1.82239313260000E-02 1.85364774328000E-02 1.88543660791000E-02 
1.91776885882000E-02 1.95065378444000E-02 1.98410083196000E-02 2.01811961008000E-02 
2.05271989174000E-02 2.08791161692000E-02 2.12370489553000E-02 2.16011001028000E-02 
2.19713741967000E-02 2.23479776094000E-02 2.27310185318000E-02 2.31206070043000E-02 
2.35168549480000E-02 2.39198761972000E-02 2.43297865323000E-02 2.47467037124000E-02 
2.51707475099000E-02 2.56020397443000E-02 2.60407043176000E-02 2.64868672495000E-02 
2.69406567141000E-02 2.74022030762000E-02 2.78716389293000E-02 2.83490991331000E-02 
2.88347208528000E-02 2.93286435980000E-02 2.98310092632000E-02 3.03419621684000E-02 
3.08616491004000E-02 3.13902193552000E-02 3.19278247808000E-02 3.24746198209000E-02 
3.30307615591000E-02 3.35964097641000E-02 3.41717269358000E-02 3.47568783516000E-02 
3.53520321142000E-02 3.59573591998000E-02 3.65730335071000E-02 3.71992319075000E-02 
3.78361342955000E-02 3.84839236411000E-02 3.91427860414000E-02 3.98129107749000E-02 
4.04944903556000E-02 4.11877205879000E-02 4.18928006236000E-02 4.26099330184000E-02 
4.33393237908000E-02 4.40811824804000E-02 4.48357222090000E-02 4.56031597411000E-02 
4.63837155469000E-02 4.71776138648000E-02 4.79850827665000E-02 4.88063542221000E-02 
4.96416641671000E-02 5.04912525698000E-02 5.13553635006000E-02 5.22342452017000E-02 
5.31281501590000E-02 5.40373351740000E-02 5.49620614379000E-02 5.59025946068000E-02 
5.68592048775000E-02 5.78321670658000E-02 5.88217606848000E-02 5.98282700256000E-02 
6.08519842389000E-02 6.18931974180000E-02 6.29522086832000E-02 6.40293222681000E-02 
6.51248476064000E-02 6.62390994215000E-02 6.73723978163000E-02 6.85250683655000E-02 
6.96974422091000E-02 7.08898561473000E-02 7.21026527377000E-02 7.33361803932000E-02 
7.45907934824000E-02 7.58668524314000E-02 7.71647238273000E-02 7.84847805233000E-02 
7.98274017463000E-02 8.11929732053000E-02 8.25818872026000E-02 8.39945427463000E-02 
8.54313456650000E-02 8.68927087244000E-02 8.83790517458000E-02 8.98908017267000E-02 
9.14283929638000E-02 9.29922671772000E-02 9.45828736377000E-02 9.62006692957000E-02 
9.78461189127000E-02 9.95196951946000E-02 1.01221878927000E-01 1.02953159115000E-01 
1.04714033122000E-01 1.06505006812000E-01 1.08326594698000E-01 1.10179320087000E-01 
1.12063715230000E-01 1.13980321479000E-01 1.15929689436000E-01 1.17912379119000E-01 
1.19928960114000E-01 1.21980011747000E-01 1.24066123245000E-01 1.26187893908000E-01 
1.28345933279000E-01 1.30540861322000E-01 1.32773308596000E-01 1.35043916440000E-01 
1.37353337157000E-01 1.39702234198000E-01 1.42091282356000E-01 1.44521167957000E-01 
1.46992589062000E-01 1.49506255662000E-01 1.52062889884000E-01 1.54663226200000E-01 
1.57308011636000E-01 1.59998005988000E-01 1.62733982039000E-01 1.65516725783000E-01 
1.68347036647000E-01 1.71225727726000E-01 1.74153626010000E-01 1.77131572630000E-01 
1.80160423092000E-01 1.83241047524000E-01 1.86374330932000E-01 1.89561173448000E-01 
1.92802490588000E-01 1.96099213521000E-01 1.99452289332000E-01 2.02862681294000E-01 
2.06331369147000E-01 2.09859349378000E-01 2.13447635508000E-01 2.17097258381000E-01 
2.20809266463000E-01 2.24584726143000E-01 2.28424722038000E-01 2.32330357303000E-01 
2.36302753952000E-01 2.40343053178000E-01 2.44452415680000E-01 2.48632021999000E-01 
2.52883072855000E-01 2.57206789493000E-01 2.61604414033000E-01 2.66077209826000E-01 
2.70626461822000E-01 2.75253476931000E-01 2.79959584406000E-01 2.84746136220000E-01 
2.89614507458000E-01 2.94566096707000E-01 2.99602326464000E-01 3.04724643541000E-01 
3.09934519478000E-01 3.15233450974000E-01 3.20622960309000E-01 3.26104595784000E-01 
3.31679932168000E-01 3.37350571145000E-01 3.43118141782000E-01 3.48984300990000E-01 
3.54950734003000E-01 3.61019154861000E-01 3.67191306904000E-01 3.73468963273000E-01 
3.79853927416000E-01 3.86348033611000E-01 3.92953147487000E-01 3.99671166567000E-01 
4.06504020807000E-01 4.13453673155000E-01 4.20522120110000E-01 4.27711392301000E-01 
4.35023555067000E-01 4.42460709051000E-01 4.50024990802000E-01 4.57718573393000E-01 
4.65543667042000E-01 4.73502519745000E-01 4.81597417928000E-01 4.89830687098000E-01 
4.98204692514000E-01 5.06721839865000E-01 5.15384575964000E-01 5.24195389447000E-01 
5.33156811490000E-01 5.42271416536000E-01 5.51541823035000E-01 5.60970694195000E-01 
5.70560738748000E-01 5.80314711729000E-01 5.90235415265000E-01 6.00325699383000E-01 
6.10588462825000E-01 6.21026653886000E-01 6.31643271256000E-01 6.42441364882000E-01 
6.53424036849000E-01 6.64594442266000E-01 6.75955790174000E-01 6.87511344468000E-01 
6.99264424836000E-01 7.11218407710000E-01 7.23376727238000E-01 7.35742876271000E-01 
7.48320407362000E-01 7.61112933794000E-01 7.74124130612000E-01 7.87357735681000E-01 
8.00817550760000E-01 8.14507442593000E-01 8.28431344021000E-01 8.42593255111000E-01 
8.56997244307000E-01 8.71647449596000E-01 8.86548079698000E-01 9.01703415276000E-01 
9.17117810165000E-01 9.32795692622000E-01 9.48741566600000E-01 9.64960013039000E-01 
9.81455691185000E-01 9.98233339927000E-01 1.01529777916000E+00 1.03265391116000E+00 
1.05030672202000E+00 1.06826128305000E+00 1.08652275224000E+00 1.10509637576000E+00 
1.12398748945000E+00 1.14320152036000E+00 1.16274398832000E+00 1.18262050749000E+00 
1.20283678802000E+00 1.22339863765000E+00 1.24431196340000E+00 1.26558277327000E+00 
1.28721717795000E+00 1.30922139259000E+00 1.33160173856000E+00 1.35436464531000E+00 
1.37751665219000E+00 1.40106441031000E+00 1.42501468450000E+00 1.44937435519000E+00 
1.47415042046000E+00 1.49934999799000E+00 1.52498032713000E+00 1.55104877097000E+00 
1.57756281848000E+00 1.60453008663000E+00 1.63195832259000E+00 1.65985540597000E+00 
1.68822935105000E+00 1.71708830912000E+00 1.74644057081000E+00 1.77629456845000E+00 
1.80665887851000E+00 1.83754222407000E+00 1.86895347733000E+00 1.90090166212000E+00 
1.93339595655000E+00 1.96644569558000E+00 2.00006037379000E+00 2.03424964800000E+00 
2.06902334014000E+00 2.10439144002000E+00 2.14036410820000E+00 2.17695167894000E+00 
2.21416466315000E+00 2.25201375138000E+00 2.29050981695000E+00 2.32966391904000E+00 
2.36948730586000E+00 2.40999141790000E+00 2.45118789121000E+00 2.49308856073000E+00 
2.53570546372000E+00 2.57905084319000E+00 2.62313715143000E+00 2.66797705359000E+00 
2.71358343129000E+00 2.75996938636000E+00 2.80714824461000E+00 2.85513355959000E+00 
2.90393911656000E+00 2.95357893642000E+00 3.00406727971000E+00 3.05541865078000E+00 
3.10764780186000E+00 3.16076973740000E+00 3.21479971828000E+00 3.26975326628000E+00 
3.32564616849000E+00 3.38249448186000E+00 3.44031453780000E+00 3.49912294691000E+00 
3.55893660370000E+00 3.61977269147000E+00 3.68164868726000E+00 3.74458236685000E+00 
3.80859180985000E+00 3.87369540496000E+00 3.93991185516000E+00 4.00726018316000E+00 
4.07575973684000E+00 4.14543019479000E+00 4.21629157198000E+00 4.28836422553000E+00 
4.36166886050000E+00 4.43622653590000E+00 4.51205867071000E+00 4.58918705003000E+00 
4.66763383135000E+00 4.74742155092000E+00 4.82857313020000E+00 4.91111188247000E+00 
4.99506151952000E+00 5.08044615846000E+00 5.16729032863000E+00 5.25561897869000E+00 
5.34545748376000E+00 5.43683165268000E+00 5.52976773550000E+00 5.62429243096000E+00 
5.72043289416000E+00 5.81821674441000E+00 5.91767207310000E+00 6.01882745184000E+00 
6.12171194061000E+00 6.22635509613000E+00 6.33278698034000E+00 6.44103816908000E+00 
6.55113976082000E+00 6.66312338560000E+00 6.77702121417000E+00 6.89286596716000E+00 
7.01069092452000E+00 7.13052993510000E+00 7.25241742631000E+00 7.37638841407000E+00 
7.50247851286000E+00 7.63072394591000E+00 7.76116155566000E+00 7.89382881430000E+00 
8.02876383458000E+00 8.16600538072000E+00 8.30559287955000E+00 8.44756643186000E+00 
8.59196682391000E+00 8.73883553913000E+00 8.88821477007000E+00 9.04014743049000E+00 
9.19467716769000E+00 9.35184837509000E+00 9.51170620493000E+00 9.67429658127000E+00 
9.83966621318000E+00 1.00078626082000E+01 1.01789340858000E+01 1.03529297915000E+01 
1.05298997111000E+01 1.07098946844000E+01 1.08929664206000E+01 1.10791675126000E+01 
1.12685514524000E+01 1.14611726464000E+01 1.16570864309000E+01 1.18563490880000E+01 
1.20590178623000E+01 1.22651509763000E+01 1.24748076483000E+01 1.26880481085000E+01 
1.29049336167000E+01 1.31255264800000E+01 1.33498900705000E+01 1.35780888434000E+01 
1.38101883558000E+01 1.40462552855000E+01 1.42863574499000E+01 1.45305638257000E+01 
1.47789445687000E+01 1.50315710338000E+01 1.52885157958000E+01 1.55498526699000E+01 
1.58156567332000E+01 1.60860043459000E+01 1.63609731738000E+01 1.66406422100000E+01 
1.69250917981000E+01 1.72144036550000E+01 1.75086608942000E+01 1.78079480503000E+01 
1.81123511027000E+01 1.84219575004000E+01 1.87368561873000E+01 1.90571376279000E+01 
1.93828938327000E+01 1.97142183851000E+01 2.00512064684000E+01 2.03939548927000E+01 
2.07425621229000E+01 2.10971283073000E+01 2.14577553057000E+01 2.18245467193000E+01 
2.21976079203000E+01 2.25770460819000E+01 2.29629702092000E+01 2.33554911710000E+01 
2.37547217307000E+01 2.41607765797000E+01 2.45737723697000E+01 2.49938277463000E+01 
2.54210633833000E+01 2.58556020173000E+01 2.62975684828000E+01 2.67470897482000E+01 
2.72042949523000E+01 2.76693154412000E+01 2.81422848065000E+01 2.86233389229000E+01 
2.91126159881000E+01 2.96102565619000E+01 3.01164036068000E+01 3.06312025290000E+01 
3.11548012204000E+01 3.16873501006000E+01 3.22290021607000E+01 3.27799130069000E+01 
3.33402409050000E+01 3.39101468267000E+01 3.44897944946000E+01 3.50793504305000E+01 
3.56789840024000E+01 3.62888674732000E+01 3.69091760509000E+01 3.75400879380000E+01 
3.81817843833000E+01 3.88344497337000E+01 3.94982714874000E+01 4.01734403476000E+01 
4.08601502772000E+01 4.15585985547000E+01 4.22689858306000E+01 4.29915161857000E+01 
4.37263971888000E+01 4.44738399570000E+01 4.52340592162000E+01 4.60072733627000E+01 
4.67937045259000E+01 4.75935786322000E+01 4.84071254701000E+01 4.92345787558000E+01 
5.00761762007000E+01 5.09321595793000E+01 5.18027747991000E+01 5.26882719711000E+01 
5.35889054814000E+01 5.45049340646000E+01 5.54366208781000E+01 5.63842335773000E+01 
5.73480443931000E+01 5.83283302098000E+01 5.93253726443000E+01 6.03394581278000E+01 
6.13708779874000E+01 6.24199285300000E+01 6.34869111275000E+01 6.45721323035000E+01 
6.56759038209000E+01 6.67985427720000E+01 6.79403716692000E+01 6.91017185378000E+01 
7.02829170103000E+01 7.14843064222000E+01 7.27062319095000E+01 7.39490445076000E+01 
7.52131012526000E+01 7.64987652836000E+01 7.78064059468000E+01 7.91363989022000E+01 
8.04891262310000E+01 8.18649765457000E+01 8.32643451013000E+01 8.46876339094000E+01 
8.61352518533000E+01 8.76076148056000E+01 8.91051457478000E+01 9.06282748914000E+01 
9.21774398021000E+01 9.37530855249000E+01 9.53556647123000E+01 9.69856377543000E+01 
9.86434729107000E+01 1.00329646445000E+02 1.02044642763000E+02 1.03788954550000E+02 
1.05563082912000E+02 1.07367537523000E+02 1.09202836766000E+02 1.11069507889000E+02 
1.12968087150000E+02 1.14899119974000E+02 1.16863161108000E+02 1.18860774785000E+02 
1.20892534880000E+02 1.22959025078000E+02 1.25060839041000E+02 1.27198580582000E+02 
1.29372863830000E+02 1.31584313416000E+02 1.33833564647000E+02 1.36121263688000E+02 
1.38448067751000E+02 1.40814645283000E+02 1.43221676155000E+02 1.45669851860000E+02 
1.48159875712000E+02 1.50692463047000E+02 1.53268341428000E+02 1.55888250854000E+02 
1.58552943976000E+02 1.61263186308000E+02 1.64019756451000E+02 1.66823446312000E+02 
1.69675061340000E+02 1.72575420746000E+02 1.75525357748000E+02 1.78525719807000E+02 
1.81577368867000E+02 1.84681181610000E+02 1.87838049699000E+02 1.91048880043000E+02 
1.94314595050000E+02 1.97636132898000E+02 2.01014447800000E+02 
</PP_R>
    <PP_RAB>
1.02470118920000E-06 1.04221702594000E-06 1.06003227147000E-06 1.07815204375000E-06 
1.09658154825000E-06 1.11532607942000E-06 1.13439102218000E-06 1.15378185353000E-06 
1.17350414409000E-06 1.19356355967000E-06 1.21396586297000E-06 1.23471691517000E-06 
1.25582267765000E-06 1.27728921368000E-06 1.29912269019000E-06 1.32132937950000E-06 
1.34391566118000E-06 1.36688802382000E-06 1.39025306694000E-06 1.41401750286000E-06 
1.43818815865000E-06 1.46277197807000E-06 1.48777602357000E-06 1.51320747833000E-06 
1.53907364832000E-06 1.56538196439000E-06 1.59213998440000E-06 1.61935539542000E-06 
1.64703601591000E-06 1.67518979798000E-06 1.70382482966000E-06 1.73294933724000E-06 
1.76257168763000E-06 1.79270039076000E-06 1.82334410202000E-06 1.85451162477000E-06 
1.88621191281000E-06 1.91845407304000E-06 1.95124736799000E-06 1.98460121856000E-06 
2.01852520666000E-06 2.05302907798000E-06 2.08812274484000E-06 2.12381628895000E-06 
2.16011996438000E-06 2.19704420048000E-06 2.23459960486000E-06 2.27279696647000E-06 
2.31164725866000E-06 2.35116164238000E-06 2.39135146935000E-06 2.43222828531000E-06 
2.47380383340000E-06 2.51609005746000E-06 2.55909910550000E-06 2.60284333320000E-06 
2.64733530741000E-06 2.69258780984000E-06 2.73861384063000E-06 2.78542662219000E-06 
2.83303960292000E-06 2.88146646110000E-06 2.93072110884000E-06 2.98081769604000E-06 
3.03177061449000E-06 3.08359450196000E-06 3.13630424647000E-06 3.18991499049000E-06 
3.24444213537000E-06 3.29990134568000E-06 3.35630855380000E-06 3.41367996442000E-06 
3.47203205923000E-06 3.53138160167000E-06 3.59174564171000E-06 3.65314152076000E-06 
3.71558687669000E-06 3.77909964882000E-06 3.84369808315000E-06 3.90940073757000E-06 
3.97622648716000E-06 4.04419452969000E-06 4.11332439104000E-06 4.18363593089000E-06 
4.25514934839000E-06 4.32788518796000E-06 4.40186434519000E-06 4.47710807287000E-06 
4.55363798706000E-06 4.63147607333000E-06 4.71064469305000E-06 4.79116658984000E-06 
4.87306489608000E-06 4.95636313956000E-06 5.04108525027000E-06 5.12725556721000E-06 
5.21489884547000E-06 5.30404026325000E-06 5.39470542916000E-06 5.48692038954000E-06 
5.58071163598000E-06 5.67610611288000E-06 5.77313122523000E-06 5.87181484647000E-06 
5.97218532648000E-06 6.07427149978000E-06 6.17810269373000E-06 6.28370873703000E-06 
6.39111996826000E-06 6.50036724459000E-06 6.61148195063000E-06 6.72449600751000E-06 
6.83944188196000E-06 6.95635259571000E-06 7.07526173495000E-06 7.19620345998000E-06 
7.31921251501000E-06 7.44432423816000E-06 7.57157457161000E-06 7.70100007192000E-06 
7.83263792053000E-06 7.96652593445000E-06 8.10270257711000E-06 8.24120696942000E-06 
8.38207890102000E-06 8.52535884169000E-06 8.67108795298000E-06 8.81930810005000E-06 
8.97006186368000E-06 9.12339255250000E-06 9.27934421545000E-06 9.43796165444000E-06 
9.59929043717000E-06 9.76337691029000E-06 9.93026821268000E-06 1.01000122890000E-05 
1.02726579033000E-05 1.04482546535000E-05 1.06268529851000E-05 1.08085042059000E-05 
1.09932605008000E-05 1.11811749467000E-05 1.13723015278000E-05 1.15666951511000E-05 
1.17644116621000E-05 1.19655078609000E-05 1.21700415185000E-05 1.23780713936000E-05 
1.25896572491000E-05 1.28048598695000E-05 1.30237410783000E-05 1.32463637559000E-05 
1.34727918575000E-05 1.37030904315000E-05 1.39373256382000E-05 1.41755647689000E-05 
1.44178762650000E-05 1.46643297380000E-05 1.49149959891000E-05 1.51699470300000E-05 
1.54292561031000E-05 1.56929977029000E-05 1.59612475972000E-05 1.62340828492000E-05 
1.65115818390000E-05 1.67938242867000E-05 1.70808912752000E-05 1.73728652732000E-05 
1.76698301593000E-05 1.79718712456000E-05 1.82790753027000E-05 1.85915305845000E-05 
1.89093268533000E-05 1.92325554057000E-05 1.95613090992000E-05 1.98956823782000E-05 
2.02357713018000E-05 2.05816735708000E-05 2.09334885565000E-05 2.12913173283000E-05 
2.16552626836000E-05 2.20254291768000E-05 2.24019231495000E-05 2.27848527614000E-05 
2.31743280205000E-05 2.35704608156000E-05 2.39733649480000E-05 2.43831561642000E-05 
2.47999521894000E-05 2.52238727609000E-05 2.56550396629000E-05 2.60935767615000E-05 
2.65396100397000E-05 2.69932676342000E-05 2.74546798723000E-05 2.79239793086000E-05 
2.84013007638000E-05 2.88867813631000E-05 2.93805605757000E-05 2.98827802548000E-05 
3.03935846785000E-05 3.09131205909000E-05 3.14415372446000E-05 3.19789864435000E-05 
3.25256225865000E-05 3.30816027114000E-05 3.36470865406000E-05 3.42222365267000E-05 
3.48072178991000E-05 3.54021987117000E-05 3.60073498909000E-05 3.66228452849000E-05 
3.72488617137000E-05 3.78855790197000E-05 3.85331801194000E-05 3.91918510561000E-05 
3.98617810532000E-05 4.05431625687000E-05 4.12361913502000E-05 4.19410664916000E-05 
4.26579904897000E-05 4.33871693031000E-05 4.41288124106000E-05 4.48831328720000E-05 
4.56503473889000E-05 4.64306763673000E-05 4.72243439805000E-05 4.80315782339000E-05 
4.88526110303000E-05 4.96876782365000E-05 5.05370197511000E-05 5.14008795736000E-05 
5.22795058742000E-05 5.31731510651000E-05 5.40820718734000E-05 5.50065294144000E-05 
5.59467892669000E-05 5.69031215493000E-05 5.78758009974000E-05 5.88651070432000E-05 
5.98713238952000E-05 6.08947406199000E-05 6.19356512253000E-05 6.29943547448000E-05 
6.40711553234000E-05 6.51663623050000E-05 6.62802903216000E-05 6.74132593830000E-05 
6.85655949693000E-05 6.97376281242000E-05 7.09296955502000E-05 7.21421397052000E-05 
7.33753089009000E-05 7.46295574030000E-05 7.59052455328000E-05 7.72027397707000E-05 
7.85224128619000E-05 7.98646439229000E-05 8.12298185505000E-05 8.26183289332000E-05 
8.40305739631000E-05 8.54669593508000E-05 8.69278977420000E-05 8.84138088362000E-05 
8.99251195067000E-05 9.14622639240000E-05 9.30256836798000E-05 9.46158279144000E-05 
9.62331534454000E-05 9.78781248993000E-05 9.95512148444000E-05 1.01252903927000E-04 
1.02983681010000E-04 1.04744043311000E-04 1.06534496549000E-04 1.08355555087000E-04 
1.10207742079000E-04 1.12091589622000E-04 1.14007638910000E-04 1.15956440387000E-04 
1.17938553905000E-04 1.19954548887000E-04 1.22005004490000E-04 1.24090509770000E-04 
1.26211663852000E-04 1.28369076103000E-04 1.30563366305000E-04 1.32795164836000E-04 
1.35065112849000E-04 1.37373862454000E-04 1.39722076912000E-04 1.42110430819000E-04 
1.44539610302000E-04 1.47010313219000E-04 1.49523249354000E-04 1.52079140625000E-04 
1.54678721290000E-04 1.57322738159000E-04 1.60011950806000E-04 1.62747131790000E-04 
1.65529066876000E-04 1.68358555260000E-04 1.71236409798000E-04 1.74163457244000E-04 
1.77140538481000E-04 1.80168508766000E-04 1.83248237978000E-04 1.86380610862000E-04 
1.89566527290000E-04 1.92806902512000E-04 1.96102667427000E-04 1.99454768843000E-04 
2.02864169754000E-04 2.06331849616000E-04 2.09858804626000E-04 2.13446048009000E-04 
2.17094610312000E-04 2.20805539695000E-04 2.24579902237000E-04 2.28418782239000E-04 
2.32323282537000E-04 2.36294524818000E-04 2.40333649944000E-04 2.44441818277000E-04 
2.48620210014000E-04 2.52870025527000E-04 2.57192485704000E-04 2.61588832306000E-04 
2.66060328317000E-04 2.70608258313000E-04 2.75233928824000E-04 2.79938668717000E-04 
2.84723829572000E-04 2.89590786075000E-04 2.94540936406000E-04 2.99575702648000E-04 
3.04696531193000E-04 3.09904893155000E-04 3.15202284796000E-04 3.20590227954000E-04 
3.26070270481000E-04 3.31643986687000E-04 3.37312977792000E-04 3.43078872389000E-04 
3.48943326907000E-04 3.54908026091000E-04 3.60974683482000E-04 3.67145041915000E-04 
3.73420874014000E-04 3.79803982704000E-04 3.86296201729000E-04 3.92899396177000E-04 
3.99615463019000E-04 4.06446331651000E-04 4.13393964448000E-04 4.20460357332000E-04 
4.27647540341000E-04 4.34957578212000E-04 4.42392570979000E-04 4.49954654571000E-04 
4.57646001428000E-04 4.65468821125000E-04 4.73425361008000E-04 4.81517906835000E-04 
4.89748783440000E-04 4.98120355393000E-04 5.06635027684000E-04 5.15295246416000E-04 
5.24103499500000E-04 5.33062317378000E-04 5.42174273745000E-04 5.51441986289000E-04 
5.60868117445000E-04 5.70455375157000E-04 5.80206513660000E-04 5.90124334267000E-04 
6.00211686176000E-04 6.10471467288000E-04 6.20906625039000E-04 6.31520157248000E-04 
6.42315112978000E-04 6.53294593411000E-04 6.64461752738000E-04 6.75819799069000E-04 
6.87371995351000E-04 6.99121660306000E-04 7.11072169385000E-04 7.23226955739000E-04 
7.35589511202000E-04 7.48163387297000E-04 7.60952196256000E-04 7.73959612056000E-04 
7.87189371476000E-04 8.00645275169000E-04 8.14331188756000E-04 8.28251043937000E-04 
8.42408839614000E-04 8.56808643050000E-04 8.71454591029000E-04 8.86350891049000E-04 
9.01501822528000E-04 9.16911738036000E-04 9.32585064544000E-04 9.48526304694000E-04 
9.64740038096000E-04 9.81230922643000E-04 9.98003695847000E-04 1.01506317620000E-03 
1.03241426456000E-03 1.05006194556000E-03 1.06801128904000E-03 1.08626745150000E-03 
1.10483567757000E-03 1.12372130155000E-03 1.14292974892000E-03 1.16246653789000E-03 
1.18233728100000E-03 1.20254768674000E-03 1.22310356115000E-03 1.24401080955000E-03 
1.26527543818000E-03 1.28690355596000E-03 1.30890137623000E-03 1.33127521853000E-03 
1.35403151045000E-03 1.37717678942000E-03 1.40071770462000E-03 1.42466101892000E-03 
1.44901361077000E-03 1.47378247618000E-03 1.49897473078000E-03 1.52459761181000E-03 
1.55065848024000E-03 1.57716482284000E-03 1.60412425437000E-03 1.63154451976000E-03 
1.65943349632000E-03 1.68779919601000E-03 1.71664976775000E-03 1.74599349975000E-03 
1.77583882190000E-03 1.80619430817000E-03 1.83706867912000E-03 1.86847080435000E-03 
1.90040970509000E-03 1.93289455676000E-03 1.96593469164000E-03 1.99953960151000E-03 
2.03371894041000E-03 2.06848252741000E-03 2.10384034941000E-03 2.13980256404000E-03 
2.17637950253000E-03 2.21358167274000E-03 2.25141976213000E-03 2.28990464086000E-03 
2.32904736487000E-03 2.36885917912000E-03 2.40935152078000E-03 2.45053602250000E-03 