<UPF version="2.0.1">
  <PP_INFO>
Generated using Vanderbilt code, version   7  3  6
Author: kfg        Generation date:    1    4   15
Automatically converted from original USPP format to UPF.v1.

Futher converted to UPF.v2 format.
Convert Q_IJ to Q_IJL use the same routine as 'upflib/upf_to_internal.f90' of QE.
The conversion is done by using PseudoPotentialIO.jl package.
Converted by: JYU on 2024-04-30

1        The Pseudo was generated with a Scalar-Relativistic Calculation
1.50000000000E+00    Local Potential cutoff radius
nl pn  l   occ               Rcut            Rcut US             E pseu
3S  3  0  2.00      0.00000000000      1.44000000000     -9.60941084200
3P  3  1  6.00      0.00000000000      1.55000000000     -6.69550237500
3D  3  2  8.00      0.00000000000      1.50000000000     -2.08482978100
4S  4  0  0.00      0.00000000000      1.44000000000     -1.59107856400
4P  4  1  0.00      0.00000000000      1.55000000000     -1.10274995100
</PP_INFO>
  <PP_HEADER element="Ni" pseudo_type="US" relativistic="scalar" is_ultrasoft="T" is_paw="F" is_coulomb="F" has_so="F" has_wfc="F" has_gipaw="F" core_correction="T" functional="PBE" z_valence="18.0" total_psenergy="-340.796761055" wfc_cutoff="0.0" rho_cutoff="0.0" l_max="2" mesh_size="865" number_of_wfc="5" number_of_proj="6"/>
  <PP_MESH>
    <PP_R>
0.00000000000000E+00 1.51324318143000E-06 3.05235314314000E-06 4.61777204164000E-06 
6.20994959149000E-06 7.82934319450000E-06 9.47641807110000E-06 1.11516473940000E-05 
1.28555124243000E-05 1.45885026493000E-05 1.63511159236000E-05 1.81438586119000E-05 
1.99672457344000E-05 2.18218011151000E-05 2.37080575318000E-05 2.56265568695000E-05 
2.75778502758000E-05 2.95624983197000E-05 3.15810711521000E-05 3.36341486699000E-05 
3.57223206825000E-05 3.78461870815000E-05 4.00063580124000E-05 4.22034540506000E-05 
4.44381063794000E-05 4.67109569709000E-05 4.90226587713000E-05 5.13738758877000E-05 
5.37652837794000E-05 5.61975694515000E-05 5.86714316526000E-05 6.11875810755000E-05 
6.37467405612000E-05 6.63496453067000E-05 6.89970430761000E-05 7.16896944157000E-05 
7.44283728721000E-05 7.72138652145000E-05 8.00469716611000E-05 8.29285061084000E-05 
8.58592963656000E-05 8.88401843920000E-05 9.18720265391000E-05 9.49556937963000E-05 
9.80920720417000E-05 1.01282062296000E-04 1.04526580982000E-04 1.07826560186000E-04 
1.11182947930000E-04 1.14596708438000E-04 1.18068822417000E-04 1.21600287340000E-04 
1.25192117726000E-04 1.28845345440000E-04 1.32561019984000E-04 1.36340208798000E-04 
1.40183997570000E-04 1.44093490547000E-04 1.48069810851000E-04 1.52114100801000E-04 
1.56227522243000E-04 1.60411256884000E-04 1.64666506629000E-04 1.68994493931000E-04 
1.73396462135000E-04 1.77873675842000E-04 1.82427421269000E-04 1.87059006619000E-04 
1.91769762457000E-04 1.96561042091000E-04 2.01434221963000E-04 2.06390702045000E-04 
2.11431906236000E-04 2.16559282778000E-04 2.21774304665000E-04 2.27078470073000E-04 
2.32473302787000E-04 2.37960352637000E-04 2.43541195946000E-04 2.49217435982000E-04 
2.54990703421000E-04 2.60862656809000E-04 2.66834983045000E-04 2.72909397863000E-04 
2.79087646325000E-04 2.85371503321000E-04 2.91762774084000E-04 2.98263294700000E-04 
3.04874932644000E-04 3.11599587312000E-04 3.18439190565000E-04 3.25395707292000E-04 
3.32471135962000E-04 3.39667509212000E-04 3.46986894419000E-04 3.54431394301000E-04 
3.62003147518000E-04 3.69704329290000E-04 3.77537152016000E-04 3.85503865916000E-04 
3.93606759670000E-04 4.01848161086000E-04 4.10230437756000E-04 4.18755997748000E-04 
4.27427290289000E-04 4.36246806475000E-04 4.45217079981000E-04 4.54340687793000E-04 
4.63620250949000E-04 4.73058435285000E-04 4.82657952211000E-04 4.92421559482000E-04 
5.02352061992000E-04 5.12452312584000E-04 5.22725212864000E-04 5.33173714037000E-04 
5.43800817755000E-04 5.54609576980000E-04 5.65603096860000E-04 5.76784535618000E-04 
5.88157105468000E-04 5.99724073527000E-04 6.11488762763000E-04 6.23454552941000E-04 
6.35624881604000E-04 6.48003245050000E-04 6.60593199343000E-04 6.73398361334000E-04 
6.86422409699000E-04 6.99669085994000E-04 7.13142195733000E-04 7.26845609479000E-04 
7.40783263959000E-04 7.54959163191000E-04 7.69377379636000E-04 7.84042055368000E-04 
7.98957403267000E-04 8.14127708221000E-04 8.29557328367000E-04 8.45250696335000E-04 
8.61212320527000E-04 8.77446786408000E-04 8.93958757827000E-04 9.10752978352000E-04 
9.27834272640000E-04 9.45207547814000E-04 9.62877794880000E-04 9.80850090160000E-04 
9.99129596745000E-04 1.01772156598000E-03 1.03663133899000E-03 1.05586434817000E-03 
1.07542611881000E-03 1.09532227061000E-03 1.11555851936000E-03 1.13614067854000E-03 
1.15707466101000E-03 1.17836648070000E-03 1.20002225432000E-03 1.22204820317000E-03 
1.24445065488000E-03 1.26723604523000E-03 1.29041092004000E-03 1.31398193698000E-03 
1.33795586756000E-03 1.36233959903000E-03 1.38714013636000E-03 1.41236460426000E-03 
1.43802024924000E-03 1.46411444166000E-03 1.49065467788000E-03 1.51764858240000E-03 
1.54510391005000E-03 1.57302854821000E-03 1.60143051908000E-03 1.63031798201000E-03 
1.65969923580000E-03 1.68958272111000E-03 1.71997702291000E-03 1.75089087287000E-03 
1.78233315196000E-03 1.81431289293000E-03 1.84683928293000E-03 1.87992166618000E-03 
1.91356954660000E-03 1.94779259058000E-03 1.98260062973000E-03 2.01800366373000E-03 
2.05401186319000E-03 2.09063557257000E-03 2.12788531314000E-03 2.16577178605000E-03 
2.20430587533000E-03 2.24349865109000E-03 2.28336137266000E-03 2.32390549181000E-03 
2.36514265610000E-03 2.40708471217000E-03 2.44974370914000E-03 2.49313190213000E-03 
2.53726175573000E-03 2.58214594759000E-03 2.62779737207000E-03 2.67422914394000E-03 
2.72145460214000E-03 2.76948731365000E-03 2.81834107733000E-03 2.86802992791000E-03 
2.91856814005000E-03 2.96997023239000E-03 3.02225097176000E-03 3.07542537741000E-03 
3.12950872531000E-03 3.18451655257000E-03 3.24046466186000E-03 3.29736912600000E-03 
3.35524629254000E-03 3.41411278846000E-03 3.47398552498000E-03 3.53488170237000E-03 
3.59681881493000E-03 3.65981465598000E-03 3.72388732302000E-03 3.78905522288000E-03 
3.85533707704000E-03 3.92275192699000E-03 3.99131913972000E-03 4.06105841326000E-03 
4.13198978234000E-03 4.20413362419000E-03 4.27751066433000E-03 4.35214198257000E-03 
4.42804901904000E-03 4.50525358035000E-03 4.58377784590000E-03 4.66364437417000E-03 
4.74487610928000E-03 4.82749638754000E-03 4.91152894415000E-03 4.99699792003000E-03 
5.08392786878000E-03 5.17234376368000E-03 5.26227100491000E-03 5.35373542682000E-03 
5.44676330538000E-03 5.54138136569000E-03 5.63761678969000E-03 5.73549722395000E-03 
5.83505078764000E-03 5.93630608056000E-03 6.03929219140000E-03 6.14403870608000E-03 
6.25057571623000E-03 6.35893382790000E-03 6.46914417025000E-03 6.58123840460000E-03 
6.69524873344000E-03 6.81120790974000E-03 6.92914924633000E-03 7.04910662546000E-03 
7.17111450857000E-03 7.29520794617000E-03 7.42142258790000E-03 7.54979469279000E-03 
7.68036113965000E-03 7.81315943769000E-03 7.94822773731000E-03 8.08560484101000E-03 
8.22533021457000E-03 8.36744399838000E-03 8.51198701900000E-03 8.65900080082000E-03 
8.80852757808000E-03 8.96061030691000E-03 9.11529267773000E-03 9.27261912782000E-03 
9.43263485399000E-03 9.59538582569000E-03 9.76091879811000E-03 9.92928132568000E-03 
1.01005217757000E-02 1.02746893422000E-02 1.04518340602000E-02 1.06320068199000E-02 
1.08152593815000E-02 1.10016443899000E-02 1.11912153899000E-02 1.13840268415000E-02 
1.15801341359000E-02 1.17795936107000E-02 1.19824625669000E-02 1.21887992848000E-02 
1.23986630409000E-02 1.26121141250000E-02 1.28292138575000E-02 1.30500246070000E-02 
1.32746098080000E-02 1.35030339796000E-02 1.37353627437000E-02 1.39716628437000E-02 
1.42120021642000E-02 1.44564497499000E-02 1.47050758259000E-02 1.49579518177000E-02 
1.52151503717000E-02 1.54767453760000E-02 1.57428119819000E-02 1.60134266250000E-02 
1.62886670478000E-02 1.65686123214000E-02 1.68533428689000E-02 1.71429404876000E-02 
1.74374883735000E-02 1.77370711445000E-02 1.80417748648000E-02 1.83516870699000E-02 
1.86668967917000E-02 1.89874945838000E-02 1.93135725477000E-02 1.96452243593000E-02 
1.99825452957000E-02 2.03256322628000E-02 2.06745838228000E-02 2.10295002227000E-02 
2.13904834231000E-02 2.17576371276000E-02 2.21310668122000E-02 2.25108797561000E-02 
2.28971850723000E-02 2.32900937386000E-02 2.36897186303000E-02 2.40961745518000E-02 
2.45095782700000E-02 2.49300485478000E-02 2.53577061782000E-02 2.57926740189000E-02 
2.62350770278000E-02 2.66850422988000E-02 2.71426990980000E-02 2.76081789016000E-02 
2.80816154327000E-02 2.85631447007000E-02 2.90529050394000E-02 2.95510371476000E-02 
3.00576841290000E-02 3.05729915334000E-02 3.10971073988000E-02 3.16301822934000E-02 
3.21723693594000E-02 3.27238243566000E-02 3.32847057073000E-02 3.38551745420000E-02 
3.44353947452000E-02 3.50255330031000E-02 3.56257588508000E-02 3.62362447218000E-02 
3.68571659967000E-02 3.74887010542000E-02 3.81310313222000E-02 3.87843413296000E-02 
3.94488187599000E-02 4.01246545045000E-02 4.08120427179000E-02 4.15111808735000E-02 
4.22222698201000E-02 4.29455138399000E-02 4.36811207069000E-02 4.44293017466000E-02 
4.51902718970000E-02 4.59642497701000E-02 4.67514577147000E-02 4.75521218806000E-02 
4.83664722829000E-02 4.91947428689000E-02 5.00371715846000E-02 5.08940004434000E-02 
5.17654755958000E-02 5.26518473997000E-02 5.35533704926000E-02 5.44703038645000E-02 
5.54029109327000E-02 5.63514596173000E-02 5.73162224177000E-02 5.82974764919000E-02 
5.92955037349000E-02 6.03105908608000E-02 6.13430294845000E-02 6.23931162056000E-02 
6.34611526936000E-02 6.45474457748000E-02 6.56523075203000E-02 6.67760553352000E-02 
6.79190120508000E-02 6.90815060163000E-02 7.02638711937000E-02 7.14664472538000E-02 
7.26895796732000E-02 7.39336198344000E-02 7.51989251258000E-02 7.64858590454000E-02 
7.77947913043000E-02 7.91260979333000E-02 8.04801613912000E-02 8.18573706742000E-02 
8.32581214278000E-02 8.46828160606000E-02 8.61318638599000E-02 8.76056811089000E-02 
8.91046912070000E-02 9.06293247906000E-02 9.21800198576000E-02 9.37572218926000E-02 
9.53613839951000E-02 9.69929670101000E-02 9.86524396596000E-02 1.00340278678000E-01 
1.02056968949000E-01 1.03803003644000E-01 1.05578884366000E-01 1.07385121290000E-01 
1.09222233313000E-01 1.11090748203000E-01 1.12991202747000E-01 1.14924142909000E-01 
1.16890123986000E-01 1.18889710765000E-01 1.20923477690000E-01 1.22992009021000E-01 
1.25095899010000E-01 1.27235752061000E-01 1.29412182913000E-01 1.31625816814000E-01 
1.33877289697000E-01 1.36167248367000E-01 1.38496350684000E-01 1.40865265754000E-01 
1.43274674122000E-01 1.45725267963000E-01 1.48217751286000E-01 1.50752840133000E-01 
1.53331262786000E-01 1.55953759975000E-01 1.58621085094000E-01 1.61334004413000E-01 
1.64093297301000E-01 1.66899756451000E-01 1.69754188103000E-01 1.72657412281000E-01 
1.75610263024000E-01 1.78613588630000E-01 1.81668251895000E-01 1.84775130365000E-01 
1.87935116588000E-01 1.91149118364000E-01 1.94418059015000E-01 1.97742877645000E-01 
2.01124529409000E-01 2.04563985790000E-01 2.08062234878000E-01 2.11620281652000E-01 
2.15239148270000E-01 2.18919874362000E-01 2.22663517330000E-01 2.26471152650000E-01 
2.30343874181000E-01 2.34282794482000E-01 2.38289045129000E-01 2.42363777039000E-01 
2.46508160805000E-01 2.50723387027000E-01 2.55010666658000E-01 2.59371231352000E-01 
2.63806333813000E-01 2.68317248161000E-01 2.72905270294000E-01 2.77571718263000E-01 
2.82317932647000E-01 2.87145276942000E-01 2.92055137950000E-01 2.97048926181000E-01 
3.02128076251000E-01 3.07294047304000E-01 3.12548323422000E-01 3.17892414057000E-01 
3.23327854464000E-01 3.28856206138000E-01 3.34479057269000E-01 3.40198023193000E-01 
3.46014746858000E-01 3.51930899296000E-01 3.57948180103000E-01 3.64068317927000E-01 
3.70293070967000E-01 3.76624227472000E-01 3.83063606262000E-01 3.89613057246000E-01 
3.96274461953000E-01 4.03049734077000E-01 4.09940820023000E-01 4.16949699466000E-01 
4.24078385920000E-01 4.31328927321000E-01 4.38703406609000E-01 4.46203942327000E-01 
4.53832689236000E-01 4.61591838927000E-01 4.69483620453000E-01 4.77510300970000E-01 
4.85674186388000E-01 4.93977622034000E-01 5.02422993324000E-01 5.11012726450000E-01 
5.19749289076000E-01 5.28635191046000E-01 5.37672985110000E-01 5.46865267650000E-01 
5.56214679431000E-01 5.65723906358000E-01 5.75395680249000E-01 5.85232779616000E-01 
5.95238030468000E-01 6.05414307119000E-01 6.15764533018000E-01 6.26291681584000E-01 
6.36998777063000E-01 6.47888895396000E-01 6.58965165103000E-01 6.70230768183000E-01 
6.81688941025000E-01 6.93342975341000E-01 7.05196219109000E-01 7.17252077536000E-01 
7.29514014038000E-01 7.41985551232000E-01 7.54670271948000E-01 7.67571820262000E-01 
7.80693902539000E-01 7.94040288499000E-01 8.07614812301000E-01 8.21421373642000E-01 
8.35463938881000E-01 8.49746542174000E-01 8.64273286638000E-01 8.79048345525000E-01 
8.94075963423000E-01 9.09360457476000E-01 9.24906218624000E-01 9.40717712863000E-01 
9.56799482529000E-01 9.73156147604000E-01 9.89792407041000E-01 1.00671304011000E+00 
1.02392290780000E+00 1.04142695415000E+00 1.05923020774000E+00 1.07733778311000E+00 
1.09575488221000E+00 1.11448679591000E+00 1.13353890554000E+00 1.15291668439000E+00 
1.17262569933000E+00 1.19267161237000E+00 1.21306018232000E+00 1.23379726641000E+00 
1.25488882202000E+00 1.27634090834000E+00 1.29815968813000E+00 1.32035142951000E+00 
1.34292250774000E+00 1.36587940705000E+00 1.38922872252000E+00 1.41297716195000E+00 
1.43713154781000E+00 1.46169881918000E+00 1.48668603377000E+00 1.51210036992000E+00 
1.53794912868000E+00 1.56423973589000E+00 1.59097974435000E+00 1.61817683593000E+00 
1.64583882383000E+00 1.67397365481000E+00 1.70258941147000E+00 1.73169431454000E+00 
1.76129672532000E+00 1.79140514799000E+00 1.82202823213000E+00 1.85317477515000E+00 
1.88485372486000E+00 1.91707418200000E+00 1.94984540289000E+00 1.98317680207000E+00 
2.01707795499000E+00 2.05155860082000E+00 2.08662864516000E+00 2.12229816296000E+00 
2.15857740139000E+00 2.19547678277000E+00 2.23300690758000E+00 2.27117855749000E+00 
2.31000269849000E+00 2.34949048399000E+00 2.38965325808000E+00 2.43050255874000E+00 
2.47205012118000E+00 2.51430788122000E+00 2.55728797869000E+00 2.60100276094000E+00 
2.64546478639000E+00 2.69068682811000E+00 2.73668187752000E+00 2.78346314811000E+00 
2.83104407923000E+00 2.87943833996000E+00 2.92865983304000E+00 2.97872269885000E+00 
3.02964131949000E+00 3.08143032288000E+00 3.13410458701000E+00 3.18767924417000E+00 
3.24216968532000E+00 3.29759156452000E+00 3.35396080339000E+00 3.41129359574000E+00 
3.46960641215000E+00 3.52891600478000E+00 3.58923941212000E+00 3.65059396392000E+00 
3.71299728616000E+00 3.77646730610000E+00 3.84102225746000E+00 3.90668068561000E+00 
3.97346145295000E+00 4.04138374432000E+00 4.11046707246000E+00 4.18073128368000E+00 
4.25219656354000E+00 4.32488344261000E+00 4.39881280244000E+00 4.47400588150000E+00 
4.55048428130000E+00 4.62826997262000E+00 4.70738530176000E+00 4.78785299705000E+00 
4.86969617529000E+00 4.95293834843000E+00 5.03760343035000E+00 5.12371574369000E+00 
5.21130002684000E+00 5.30038144109000E+00 5.39098557778000E+00 5.48313846574000E+00 
5.57686657872000E+00 5.67219684297000E+00 5.76915664505000E+00 5.86777383963000E+00 
5.96807675751000E+00 6.07009421380000E+00 6.17385551612000E+00 6.27939047309000E+00 
6.38672940287000E+00 6.49590314185000E+00 6.60694305353000E+00 6.71988103754000E+00 
6.83474953876000E+00 6.95158155670000E+00 7.07041065493000E+00 7.19127097076000E+00 
7.31419722502000E+00 7.43922473203000E+00 7.56638940978000E+00 7.69572779023000E+00 
7.82727702978000E+00 7.96107492000000E+00 8.09715989841000E+00 8.23557105961000E+00 
8.37634816645000E+00 8.51953166145000E+00 8.66516267847000E+00 8.81328305449000E+00 
8.96393534161000E+00 9.11716281933000E+00 9.27300950693000E+00 9.43152017616000E+00 
9.59274036405000E+00 9.75671638606000E+00 9.92349534932000E+00 1.00931251662000E+01 
1.02656545681000E+01 1.04411331192000E+01 1.06196112314000E+01 1.08011401777000E+01 
1.09857721081000E+01 1.11735600637000E+01 1.13645579922000E+01 1.15588207638000E+01 
1.17564041864000E+01 1.19573650218000E+01 1.21617610022000E+01 1.23696508467000E+01 
1.25810942779000E+01 1.27961520394000E+01 1.30148859133000E+01 1.32373587375000E+01 
1.34636344241000E+01 1.36937779778000E+01 1.39278555144000E+01 1.41659342797000E+01 
1.44080826693000E+01 1.46543702477000E+01 1.49048677685000E+01 1.51596471948000E+01 
1.54187817198000E+01 1.56823457879000E+01 1.59504151159000E+01 1.62230667149000E+01 
1.65003789125000E+01 1.67824313751000E+01 1.70693051309000E+01 1.73610825932000E+01 
1.76578475840000E+01 1.79596853582000E+01 1.82666826278000E+01 1.85789275874000E+01 
1.88965099387000E+01 1.92195209172000E+01 1.95480533174000E+01 1.98822015206000E+01 
2.02220615210000E+01 2.05677309538000E+01 2.09193091230000E+01 2.12768970305000E+01 
2.16405974041000E+01 2.20105147281000E+01 2.23867552724000E+01 2.27694271238000E+01 
2.31586402164000E+01 2.35545063636000E+01 2.39571392902000E+01 2.43666546647000E+01 
2.47831701330000E+01 2.52068053519000E+01 2.56376820237000E+01 2.60759239308000E+01 
2.65216569718000E+01 2.69750091970000E+01 2.74361108457000E+01 2.79050943837000E+01 
2.83820945407000E+01 2.88672483497000E+01 2.93606951859000E+01 2.98625768072000E+01 
3.03730373943000E+01 3.08922235928000E+01 3.14202845547000E+01 3.19573719819000E+01 
3.25036401690000E+01 3.30592460484000E+01 3.36243492349000E+01 3.41991120717000E+01 
3.47836996771000E+01 3.53782799917000E+01 3.59830238270000E+01 3.65981049142000E+01 
3.72236999541000E+01 3.78599886682000E+01 3.85071538498000E+01 3.91653814170000E+01 
3.98348604658000E+01 4.05157833247000E+01 4.12083456095000E+01 4.19127462800000E+01 
4.26291876969000E+01 4.33578756799000E+01 4.40990195671000E+01 4.48528322746000E+01 
4.56195303584000E+01 4.63993340759000E+01 4.71924674496000E+01 4.79991583315000E+01 
4.88196384681000E+01 4.96541435676000E+01 5.05029133671000E+01 5.13661917019000E+01 
5.22442265749000E+01 5.31372702287000E+01 5.40455792174000E+01 5.49694144806000E+01 
5.59090414183000E+01 5.68647299672000E+01 5.78367546780000E+01 5.88253947948000E+01 
5.98309343345000E+01 6.08536621693000E+01 6.18938721092000E+01 6.29518629862000E+01 
6.40279387407000E+01 6.51224085084000E+01 6.62355867094000E+01 6.73677931382000E+01 
6.85193530557000E+01 6.96905972829000E+01 7.08818622956000E+01 7.20934903211000E+01 
7.33258294367000E+01 7.45792336696000E+01 7.58540630987000E+01 7.71506839576000E+01 
7.84694687406000E+01 7.98107963089000E+01 8.11750520000000E+01 8.25626277382000E+01 
8.39739221471000E+01 8.54093406643000E+01 8.68692956578000E+01 8.83542065443000E+01 
8.98644999101000E+01 9.14006096332000E+01 9.29629770082000E+01 9.45520508730000E+01 
9.61682877378000E+01 9.78121519161000E+01 9.94841156584000E+01 1.01184659287000E+02 
1.02914271337000E+02 1.04673448690000E+02 1.06462696725000E+02 1.08282529458000E+02 
1.10133469691000E+02 1.12016049165000E+02 1.13930808708000E+02 1.15878298393000E+02 
1.17859077695000E+02 1.19873715656000E+02 1.21922791041000E+02 1.24006892510000E+02 
1.26126618785000E+02 1.28282578823000E+02 1.30475391988000E+02 1.32705688234000E+02 
1.34974108282000E+02 1.37281303804000E+02 1.39627937614000E+02 1.42014683855000E+02 
1.44442228191000E+02 1.46911268009000E+02 1.49422512618000E+02 1.51976683448000E+02 
1.54574514264000E+02 1.57216751372000E+02 1.59904153837000E+02 1.62637493695000E+02 
1.65417556184000E+02 1.68245139961000E+02 1.71121057337000E+02 1.74046134507000E+02 
1.77021211788000E+02 1.80047143864000E+02 1.83124800025000E+02 1.86255064423000E+02 
1.89438836323000E+02 1.92677030359000E+02 1.95970576804000E+02 1.99320421829000E+02 
2.02727527779000E+02 
</PP_R>
    <PP_RAB>
1.50045531275000E-06 1.52610350227000E-06 1.55219011179000E-06 1.57872263549000E-06 
1.60570869566000E-06 1.63315604486000E-06 1.66107256819000E-06 1.68946628553000E-06 
1.71834535384000E-06 1.74771806952000E-06 1.77759287078000E-06 1.80797834007000E-06 
1.83888320656000E-06 1.87031634860000E-06 1.90228679634000E-06 1.93480373427000E-06 
1.96787650387000E-06 2.00151460631000E-06 2.03572770516000E-06 2.07052562919000E-06 
2.10591837517000E-06 2.14191611074000E-06 2.17852917737000E-06 2.21576809327000E-06 
2.25364355647000E-06 2.29216644785000E-06 2.33134783430000E-06 2.37119897187000E-06 
2.41173130901000E-06 2.45295648990000E-06 2.49488635771000E-06 2.53753295810000E-06 
2.58090854260000E-06 2.62502557219000E-06 2.66989672082000E-06 2.71553487912000E-06 
2.76195315804000E-06 2.80916489266000E-06 2.85718364599000E-06 2.90602321289000E-06 
2.95569762403000E-06 3.00622114990000E-06 3.05760830494000E-06 3.10987385167000E-06 
3.16303280499000E-06 3.21710043641000E-06 3.27209227855000E-06 3.32802412947000E-06 
3.38491205733000E-06 3.44277240492000E-06 3.50162179440000E-06 3.56147713207000E-06 
3.62235561319000E-06 3.68427472699000E-06 3.74725226163000E-06 3.81130630932000E-06 
3.87645527157000E-06 3.94271786440000E-06 4.01011312379000E-06 4.07866041107000E-06 
4.14837941856000E-06 4.21929017519000E-06 4.29141305223000E-06 4.36476876921000E-06 
4.43937839979000E-06 4.51526337787000E-06 4.59244550376000E-06 4.67094695036000E-06 
4.75079026964000E-06 4.83199839904000E-06 4.91459466806000E-06 4.99860280504000E-06 
5.08404694387000E-06 5.17095163102000E-06 5.25934183250000E-06 5.34924294112000E-06 
5.44068078372000E-06 5.53368162863000E-06 5.62827219319000E-06 5.72447965144000E-06 
5.82233164192000E-06 5.92185627561000E-06 6.02308214402000E-06 6.12603832738000E-06 
6.23075440300000E-06 6.33726045379000E-06 6.44558707689000E-06 6.55576539242000E-06 
6.66782705248000E-06 6.78180425024000E-06 6.89772972912000E-06 7.01563679227000E-06 
7.13555931212000E-06 7.25753174007000E-06 7.38158911646000E-06 7.50776708056000E-06 
7.63610188086000E-06 7.76663038547000E-06 7.89939009269000E-06 8.03441914183000E-06 
8.17175632412000E-06 8.31144109386000E-06 8.45351357980000E-06 8.59801459661000E-06 
8.74498565663000E-06 8.89446898181000E-06 9.04650751582000E-06 9.20114493637000E-06 
9.35842566781000E-06 9.51839489386000E-06 9.68109857057000E-06 9.84658343956000E-06 
1.00148970414000E-05 1.01860877294000E-05 1.03602046833000E-05 1.05372979235000E-05 
1.07174183256000E-05 1.09006176345000E-05 1.10869484799000E-05 1.12764643910000E-05 
1.14692198122000E-05 1.16652701183000E-05 1.18646716308000E-05 1.20674816338000E-05 
1.22737583908000E-05 1.24835611610000E-05 1.26969502169000E-05 1.29139868608000E-05 
1.31347334432000E-05 1.33592533804000E-05 1.35876111726000E-05 1.38198724226000E-05 
1.40561038544000E-05 1.42963733329000E-05 1.45407498828000E-05 1.47893037088000E-05 
1.50421062156000E-05 1.52992300284000E-05 1.55607490139000E-05 1.58267383015000E-05 
1.60972743047000E-05 1.63724347434000E-05 1.66522986657000E-05 1.69369464713000E-05 
1.72264599338000E-05 1.75209222248000E-05 1.78204179378000E-05 1.81250331121000E-05 
1.84348552576000E-05 1.87499733803000E-05 1.90704780075000E-05 1.93964612140000E-05 
1.97280166485000E-05 2.00652395604000E-05 2.04082268274000E-05 2.07570769830000E-05 
2.11118902452000E-05 2.14727685449000E-05 2.18398155555000E-05 2.22131367224000E-05 
2.25928392938000E-05 2.29790323506000E-05 2.33718268388000E-05 2.37713356006000E-05 
2.41776734071000E-05 2.45909569913000E-05 2.50113050816000E-05 2.54388384358000E-05 
2.58736798761000E-05 2.63159543239000E-05 2.67657888362000E-05 2.72233126416000E-05 
2.76886571780000E-05 2.81619561298000E-05 2.86433454666000E-05 2.91329634823000E-05 
2.96309508347000E-05 3.01374505859000E-05 3.06526082434000E-05 3.11765718021000E-05 
3.17094917866000E-05 3.22515212945000E-05 3.28028160404000E-05 3.33635344006000E-05 
3.39338374585000E-05 3.45138890514000E-05 3.51038558167000E-05 3.57039072404000E-05 
3.63142157058000E-05 3.69349565427000E-05 3.75663080779000E-05 3.82084516864000E-05 
3.88615718438000E-05 3.95258561787000E-05 4.02014955273000E-05 4.08886839875000E-05 
4.15876189755000E-05 4.22985012817000E-05 4.30215351287000E-05 4.37569282303000E-05 
4.45048918506000E-05 4.52656408652000E-05 4.60393938224000E-05 4.68263730066000E-05 
4.76268045016000E-05 4.84409182560000E-05 4.92689481488000E-05 5.01111320570000E-05 
5.09677119237000E-05 5.18389338278000E-05 5.27250480545000E-05 5.36263091672000E-05 
5.45429760808000E-05 5.54753121360000E-05 5.64235851748000E-05 5.73880676179000E-05 
5.83690365422000E-05 5.93667737613000E-05 6.03815659057000E-05 6.14137045055000E-05 
6.24634860742000E-05 6.35312121938000E-05 6.46171896012000E-05 6.57217302768000E-05 
6.68451515338000E-05 6.79877761092000E-05 6.91499322572000E-05 7.03319538425000E-05 
7.15341804372000E-05 7.27569574177000E-05 7.40006360642000E-05 7.52655736614000E-05 
7.65521336015000E-05 7.78606854882000E-05 7.91916052432000E-05 8.05452752140000E-05 
8.19220842837000E-05 8.33224279829000E-05 8.47467086034000E-05 8.61953353133000E-05 
8.76687242751000E-05 8.91672987649000E-05 9.06914892942000E-05 9.22417337334000E-05 
9.38184774378000E-05 9.54221733752000E-05 9.70532822566000E-05 9.87122726679000E-05 
1.00399621205000E-04 1.02115812610000E-04 1.03861339913000E-04 1.05636704568000E-04 
1.07442416605000E-04 1.09278994769000E-04 1.11146966673000E-04 1.13046868950000E-04 
1.14979247405000E-04 1.16944657173000E-04 1.18943662878000E-04 1.20976838795000E-04 
1.23044769017000E-04 1.25148047621000E-04 1.27287278837000E-04 1.29463077224000E-04 
1.31676067849000E-04 1.33926886460000E-04 1.36216179674000E-04 1.38544605160000E-04 
1.40912831831000E-04 1.43321540031000E-04 1.45771421736000E-04 1.48263180750000E-04 
1.50797532907000E-04 1.53375206277000E-04 1.55996941376000E-04 1.58663491377000E-04 
1.61375622330000E-04 1.64134113375000E-04 1.66939756976000E-04 1.69793359138000E-04 
1.72695739646000E-04 1.75647732299000E-04 1.78650185146000E-04 1.81703960735000E-04 
1.84809936355000E-04 1.87969004294000E-04 1.91182072090000E-04 1.94450062796000E-04 
1.97773915243000E-04 2.01154584308000E-04 2.04593041192000E-04 2.08090273699000E-04 
2.11647286514000E-04 2.15265101499000E-04 2.18944757982000E-04 2.22687313058000E-04 
2.26493841889000E-04 2.30365438018000E-04 2.34303213680000E-04 2.38308300121000E-04 
2.42381847925000E-04 2.46525027344000E-04 2.50739028633000E-04 2.55025062393000E-04 
2.59384359918000E-04 2.63818173550000E-04 2.68327777039000E-04 2.72914465906000E-04 
2.77579557817000E-04 2.82324392964000E-04 2.87150334446000E-04 2.92058768663000E-04 
2.97051105712000E-04 3.02128779795000E-04 3.07293249631000E-04 3.12545998871000E-04 
3.17888536528000E-04 3.23322397410000E-04 3.28849142561000E-04 3.34470359707000E-04 
3.40187663715000E-04 3.46002697055000E-04 3.51917130275000E-04 3.57932662477000E-04 
3.64051021807000E-04 3.70273965950000E-04 3.76603282638000E-04 3.83040790162000E-04 
3.89588337893000E-04 3.96247806815000E-04 4.03021110064000E-04 4.09910193478000E-04 
4.16917036160000E-04 4.24043651038000E-04 4.31292085451000E-04 4.38664421735000E-04 
4.46162777818000E-04 4.53789307834000E-04 4.61546202737000E-04 4.69435690933000E-04 
4.77460038919000E-04 4.85621551934000E-04 4.93922574624000E-04 5.02365491713000E-04 
5.10952728685000E-04 5.19686752490000E-04 5.28570072242000E-04 5.37605239947000E-04 
5.46794851235000E-04 5.56141546102000E-04 5.65648009674000E-04 5.75316972974000E-04 
5.85151213706000E-04 5.95153557060000E-04 6.05326876513000E-04 6.15674094665000E-04 
6.26198184070000E-04 6.36902168096000E-04 6.47789121790000E-04 6.58862172764000E-04 
6.70124502091000E-04 6.81579345219000E-04 6.93229992904000E-04 7.05079792152000E-04 
7.17132147179000E-04 7.29390520396000E-04 7.41858433395000E-04 7.54539467966000E-04 
7.67437267126000E-04 7.80555536161000E-04 7.93898043698000E-04 8.07468622780000E-04 
8.21271171972000E-04 8.35309656480000E-04 8.49588109288000E-04 8.64110632320000E-04 
8.78881397615000E-04 8.93904648528000E-04 9.09184700949000E-04 9.24725944542000E-04 
9.40532844003000E-04 9.56609940351000E-04 9.72961852224000E-04 9.89593277209000E-04 
1.00650899319000E-03 1.02371385973000E-03 1.04121281946000E-03 1.05901089947000E-03 
1.07711321283000E-03 1.09552495997000E-03 1.11425143023000E-03 1.13329800337000E-03 
1.15267015109000E-03 1.17237343864000E-03 1.19241352639000E-03 1.21279617148000E-03 
1.23352722944000E-03 1.25461265589000E-03 1.27605850829000E-03 1.29787094761000E-03 
1.32005624013000E-03 1.34262075927000E-03 1.36557098737000E-03 1.38891351759000E-03 
1.41265505578000E-03 1.43680242244000E-03 1.46136255463000E-03 1.48634250801000E-03 
1.51174945882000E-03 1.53759070600000E-03 1.56387367324000E-03 1.59060591112000E-03 
1.61779509930000E-03 1.64544904870000E-03 1.67357570378000E-03 1.70218314477000E-03 
1.73127959004000E-03 1.76087339844000E-03 1.79097307168000E-03 1.82158725684000E-03 
1.85272474876000E-03 1.88439449265000E-03 1.91660558662000E-03 1.94936728428000E-03 
1.98268899744000E-03 2.01658029879000E-03 2.05105092463000E-03 2.08611077771000E-03 
2.12176993005000E-03 2.15803862583000E-03 2.19492728435000E-03 2.23244650301000E-03 
2.27060706035000E-03 2.30941991915000E-03 2.34889622961000E-03 2.38904733251000E-03 
2.42988476247000E-03 2.47142025130000E-03 2.51366573135000E-03 2.55663333892000E-03 
2.60033541778000E-03 2.64478452268000E-03 2.68999342300000E-03 2.73597510638000E-03 
2.78274278246000E-03 2.83030988669000E-03 2.87869008418000E-03 2.92789727363000E-03 
2.97794559131000E-03 3.02884941513000E-03 3.08062336878000E-03 3.13328232591000E-03 
3.18684141442000E-03 3.24131602080000E-03 3.29672179455000E-03 3.35307465268000E-03 
3.41039078427000E-03 3.46868665514000E-03 3.52797901257000E-03 3.58828489009000E-03 
3.64962161243000E-03 3.71200680043000E-03 3.77545837616000E-03 3.83999456802000E-03 
3.90563391601000E-03 3.97239527705000E-03 4.04029783038000E-03 4.10936108310000E-03 
4.17960487573000E-03 4.25104938797000E-03 4.32371514443000E-03 4.39762302059000E-03 
4.47279424875000E-03 4.54925042414000E-03 4.62701351114000E-03 4.70610584959000E-03 
4.78655016119000E-03 4.86836955602000E-03 4.95158753921000E-03 5.03622801770000E-03 