<UPF version="2.0.1">
  <PP_INFO>
Generated using Vanderbilt code, version   7  3  6
Author: kfg        Generation date:    3    2 2014
Automatically converted from original USPP format to UPF.v1.

Futher converted to UPF.v2 format.
Convert Q_IJ to Q_IJL use the same routine as 'upflib/upf_to_internal.f90' of QE.
The conversion is done by using PseudoPotentialIO.jl package.
Converted by: JYU on 2024-04-30

0        The Pseudo was generated with a Non-Relativistic Calculation
1.25000000000E+00    Local Potential cutoff radius
nl pn  l   occ               Rcut            Rcut US             E pseu
2S  2  0  2.00      0.00000000000      1.25000000000     -1.75764509000
2P  2  1  4.00      0.00000000000      1.25000000000     -0.66426119100
</PP_INFO>
  <PP_HEADER element="O" pseudo_type="US" relativistic="scalar" is_ultrasoft="T" is_paw="F" is_coulomb="F" has_so="F" has_wfc="F" has_gipaw="F" core_correction="T" functional="PBE" z_valence="6.0" total_psenergy="-31.7887767752" wfc_cutoff="0.0" rho_cutoff="0.0" l_max="2" mesh_size="737" number_of_wfc="2" number_of_proj="5"/>
  <PP_MESH>
    <PP_R>
0.00000000000000E+00 5.29635113499000E-06 1.06832360010000E-05 1.61622021457000E-05 
2.17348235702000E-05 2.74027011807000E-05 3.31674632488000E-05 3.90307658791000E-05 
4.49942934849000E-05 5.10597592724000E-05 5.72289057325000E-05 6.35035051415000E-05 
6.98853600706000E-05 7.63763039030000E-05 8.29782013614000E-05 8.96929490432000E-05 
9.65224759654000E-05 1.03468744119000E-04 1.10533749032000E-04 1.17719520345000E-04 
1.25028122389000E-04 1.32461654785000E-04 1.40022253043000E-04 1.47712089177000E-04 
1.55533372328000E-04 1.63488349398000E-04 1.71579305700000E-04 1.79808565607000E-04 
1.88178493228000E-04 1.96691493080000E-04 2.05350010784000E-04 2.14156533764000E-04 
2.23113591964000E-04 2.32223758573000E-04 2.41489650766000E-04 2.50913930455000E-04 
2.60499305052000E-04 2.70248528251000E-04 2.80164400814000E-04 2.90249771379000E-04 
3.00507537280000E-04 3.10940645372000E-04 3.21552092887000E-04 3.32344928287000E-04 
3.43322252146000E-04 3.54487218036000E-04 3.65843033437000E-04 3.77392960653000E-04 
3.89140317755000E-04 4.01088479533000E-04 4.13240878461000E-04 4.25601005689000E-04 
4.38172412041000E-04 4.50958709041000E-04 4.63963569943000E-04 4.77190730792000E-04 
4.90643991496000E-04 5.04327216916000E-04 5.18244337978000E-04 5.32399352802000E-04 
5.46796327850000E-04 5.61439399093000E-04 5.76332773203000E-04 5.91480728758000E-04 
6.06887617473000E-04 6.22557865448000E-04 6.38495974442000E-04 6.54706523167000E-04 
6.71194168598000E-04 6.87963647318000E-04 7.05019776872000E-04 7.22367457158000E-04 
7.40011671827000E-04 7.57957489721000E-04 7.76210066327000E-04 7.94774645257000E-04 
8.13656559754000E-04 8.32861234228000E-04 8.52394185810000E-04 8.72261025938000E-04 
8.92467461973000E-04 9.13019298830000E-04 9.33922440657000E-04 9.55182892520000E-04 
9.76806762136000E-04 9.98800261625000E-04 1.02116970929000E-03 1.04392153145000E-03 
1.06706226425000E-03 1.09059855559000E-03 1.11453716698000E-03 1.13888497552000E-03 
1.16364897587000E-03 1.18883628224000E-03 1.21445413047000E-03 1.24050988005000E-03 
1.26701101631000E-03 1.29396515252000E-03 1.32138003206000E-03 1.34926353070000E-03 
1.37762365885000E-03 1.40646856380000E-03 1.43580653215000E-03 1.46564599212000E-03 
1.49599551601000E-03 1.52686382266000E-03 1.55825977993000E-03 1.59019240728000E-03 
1.62267087832000E-03 1.65570452350000E-03 1.68930283274000E-03 1.72347545819000E-03 
1.75823221697000E-03 1.79358309404000E-03 1.82953824502000E-03 1.86610799913000E-03 
1.90330286214000E-03 1.94113351943000E-03 1.97961083901000E-03 2.01874587466000E-03 
2.05854986914000E-03 2.09903425735000E-03 2.14021066967000E-03 2.18209093530000E-03 
2.22468708561000E-03 2.26801135767000E-03 2.31207619770000E-03 2.35689426467000E-03 
2.40247843395000E-03 2.44884180098000E-03 2.49599768506000E-03 2.54395963318000E-03 
2.59274142386000E-03 2.64235707117000E-03 2.69282082872000E-03 2.74414719379000E-03 
2.79635091143000E-03 2.84944697877000E-03 2.90345064928000E-03 2.95837743717000E-03 
3.01424312185000E-03 3.07106375243000E-03 3.12885565239000E-03 3.18763542423000E-03 
3.24741995424000E-03 3.30822641735000E-03 3.37007228208000E-03 3.43297531556000E-03 
3.49695358861000E-03 3.56202548094000E-03 3.62820968646000E-03 3.69552521861000E-03 
3.76399141583000E-03 3.83362794714000E-03 3.90445481777000E-03 3.97649237491000E-03 
4.04976131354000E-03 4.12428268243000E-03 4.20007789012000E-03 4.27716871110000E-03 
4.35557729208000E-03 4.43532615832000E-03 4.51643822013000E-03 4.59893677943000E-03 
4.68284553647000E-03 4.76818859661000E-03 4.85499047726000E-03 4.94327611491000E-03 
5.03307087233000E-03 5.12440054580000E-03 5.21729137258000E-03 5.31177003841000E-03 
5.40786368517000E-03 5.50559991872000E-03 5.60500681678000E-03 5.70611293702000E-03 
5.80894732528000E-03 5.91353952390000E-03 6.01991958018000E-03 6.12811805506000E-03 
6.23816603186000E-03 6.35009512524000E-03 6.46393749026000E-03 6.57972583163000E-03 
6.69749341310000E-03 6.81727406702000E-03 6.93910220405000E-03 7.06301282306000E-03 
7.18904152117000E-03 7.31722450399000E-03 7.44759859600000E-03 7.58020125116000E-03 
7.71507056366000E-03 7.85224527882000E-03 7.99176480430000E-03 8.13366922135000E-03 
8.27799929636000E-03 8.42479649258000E-03 8.57410298199000E-03 8.72596165747000E-03 
8.88041614507000E-03 9.03751081658000E-03 9.19729080225000E-03 9.35980200378000E-03 
9.52509110751000E-03 9.69320559778000E-03 9.86419377064000E-03 1.00381047477000E-02 
1.02149884902000E-02 1.03948958134000E-02 1.05778784012000E-02 1.07639888209000E-02 
1.09532805386000E-02 1.11458079340000E-02 1.13416263165000E-02 1.15407919410000E-02 
1.17433620239000E-02 1.19493947596000E-02 1.21589493374000E-02 1.23720859583000E-02 
1.25888658522000E-02 1.28093512959000E-02 1.30336056306000E-02 1.32616932801000E-02 
1.34936797696000E-02 1.37296317445000E-02 1.39696169890000E-02 1.42137044464000E-02 
1.44619642382000E-02 1.47144676847000E-02 1.49712873252000E-02 1.52324969390000E-02 
1.54981715666000E-02 1.57683875312000E-02 1.60432224606000E-02 1.63227553096000E-02 
1.66070663825000E-02 1.68962373564000E-02 1.71903513045000E-02 1.74894927201000E-02 
1.77937475407000E-02 1.81032031729000E-02 1.84179485172000E-02 1.87380739939000E-02 
1.90636715688000E-02 1.93948347799000E-02 1.97316587639000E-02 2.00742402838000E-02 
2.04226777567000E-02 2.07770712820000E-02 2.11375226699000E-02 2.15041354713000E-02 
2.18770150068000E-02 2.22562683976000E-02 2.26420045959000E-02 2.30343344161000E-02 
2.34333705670000E-02 2.38392276841000E-02 2.42520223621000E-02 2.46718731891000E-02 
2.50989007800000E-02 2.55332278116000E-02 2.59749790577000E-02 2.64242814248000E-02 
2.68812639888000E-02 2.73460580319000E-02 2.78187970806000E-02 2.82996169435000E-02 
2.87886557510000E-02 2.92860539943000E-02 2.97919545665000E-02 3.03065028029000E-02 
3.08298465233000E-02 3.13621360742000E-02 3.19035243721000E-02 3.24541669474000E-02 
3.30142219890000E-02 3.35838503899000E-02 3.41632157934000E-02 3.47524846399000E-02 
3.53518262149000E-02 3.59614126977000E-02 3.65814192106000E-02 3.72120238697000E-02 
3.78534078352000E-02 3.85057553646000E-02 3.91692538645000E-02 3.98440939453000E-02 
4.05304694755000E-02 4.12285776375000E-02 4.19386189841000E-02 4.26607974967000E-02 
4.33953206431000E-02 4.41423994375000E-02 4.49022485013000E-02 4.56750861243000E-02 
4.64611343280000E-02 4.72606189287000E-02 4.80737696029000E-02 4.89008199529000E-02 
4.97420075745000E-02 5.05975741245000E-02 5.14677653907000E-02 5.23528313620000E-02 
5.32530263010000E-02 5.41686088161000E-02 5.50998419365000E-02 5.60469931874000E-02 
5.70103346672000E-02 5.79901431250000E-02 5.89867000411000E-02 6.00002917068000E-02 
6.10312093074000E-02 6.20797490057000E-02 6.31462120267000E-02 6.42309047447000E-02 
6.53341387710000E-02 6.64562310432000E-02 6.75975039168000E-02 6.87582852574000E-02 
6.99389085350000E-02 7.11397129198000E-02 7.23610433798000E-02 7.36032507795000E-02 
7.48666919810000E-02 7.61517299466000E-02 7.74587338427000E-02 7.87880791465000E-02 
8.01401477529000E-02 8.15153280852000E-02 8.29140152060000E-02 8.43366109312000E-02 
8.57835239449000E-02 8.72551699172000E-02 8.87519716236000E-02 9.02743590662000E-02 
9.18227695974000E-02 9.33976480457000E-02 9.49994468432000E-02 9.66286261556000E-02 
9.82856540146000E-02 9.99710064523000E-02 1.01685167638000E-01 1.03428630017000E-01 
1.05201894451000E-01 1.07005470367000E-01 1.08839875896000E-01 1.10705638027000E-01 
1.12603292758000E-01 1.14533385248000E-01 1.16496469976000E-01 1.18493110897000E-01 
1.20523881608000E-01 1.22589365511000E-01 1.24690155978000E-01 1.26826856526000E-01 
1.29000080988000E-01 1.31210453690000E-01 1.33458609628000E-01 1.35745194654000E-01 
1.38070865660000E-01 1.40436290766000E-01 1.42842149513000E-01 1.45289133057000E-01 
1.47777944370000E-01 1.50309298440000E-01 1.52883922474000E-01 1.55502556113000E-01 
1.58165951639000E-01 1.60874874195000E-01 1.63630102002000E-01 1.66432426582000E-01 
1.69282652990000E-01 1.72181600041000E-01 1.75130100546000E-01 1.78129001552000E-01 
1.81179164585000E-01 1.84281465899000E-01 1.87436796724000E-01 1.90646063526000E-01 
1.93910188265000E-01 1.97230108660000E-01 2.00606778462000E-01 2.04041167722000E-01 
2.07534263072000E-01 2.11087068013000E-01 2.14700603196000E-01 2.18375906719000E-01 
2.22114034428000E-01 2.25916060212000E-01 2.29783076321000E-01 2.33716193673000E-01 
2.37716542178000E-01 2.41785271057000E-01 2.45923549178000E-01 2.50132565388000E-01 
2.54413528856000E-01 2.58767669420000E-01 2.63196237940000E-01 2.67700506659000E-01 
2.72281769565000E-01 2.76941342767000E-01 2.81680564869000E-01 2.86500797360000E-01 
2.91403424997000E-01 2.96389856212000E-01 3.01461523510000E-01 3.06619883881000E-01 
3.11866419224000E-01 3.17202636767000E-01 3.22630069502000E-01 3.28150276624000E-01 
3.33764843983000E-01 3.39475384535000E-01 3.45283538809000E-01 3.51190975373000E-01 
3.57199391322000E-01 3.63310512755000E-01 3.69526095281000E-01 3.75847924515000E-01 
3.82277816597000E-01 3.88817618711000E-01 3.95469209615000E-01 4.02234500182000E-01 
4.09115433950000E-01 4.16113987677000E-01 4.23232171914000E-01 4.30472031575000E-01 
4.37835646533000E-01 4.45325132213000E-01 4.52942640197000E-01 4.60690358849000E-01 
4.68570513939000E-01 4.76585369283000E-01 4.84737227393000E-01 4.93028430141000E-01 
5.01461359428000E-01 5.10038437872000E-01 5.18762129502000E-01 5.27634940466000E-01 
5.36659419750000E-01 5.45838159912000E-01 5.55173797828000E-01 5.64669015445000E-01 
5.74326540555000E-01 5.84149147579000E-01 5.94139658362000E-01 6.04300942983000E-01 
6.14635920584000E-01 6.25147560203000E-01 6.35838881632000E-01 6.46712956279000E-01 
6.57772908056000E-01 6.69021914274000E-01 6.80463206553000E-01 6.92100071757000E-01 
7.03935852930000E-01 7.15973950265000E-01 7.28217822073000E-01 7.40670985782000E-01 
7.53337018944000E-01 7.66219560267000E-01 7.79322310655000E-01 7.92649034274000E-01 
8.06203559634000E-01 8.19989780688000E-01 8.34011657951000E-01 8.48273219637000E-01 
8.62778562816000E-01 8.77531854593000E-01 8.92537333304000E-01 9.07799309730000E-01 
9.23322168344000E-01 9.39110368562000E-01 9.55168446029000E-01 9.71501013919000E-01 
9.88112764263000E-01 1.00500846930000E+00 1.02219298283000E+00 1.03967124163000E+00 
1.05744826688000E+00 1.07552916556000E+00 1.09391913198000E+00 1.11262344920000E+00 
1.13164749062000E+00 1.15099672148000E+00 1.17067670044000E+00 1.19069308118000E+00 
1.21105161400000E+00 1.23175814753000E+00 1.25281863036000E+00 1.27423911275000E+00 
1.29602574838000E+00 1.31818479615000E+00 1.34072262192000E+00 1.36364570036000E+00 
1.38696061684000E+00 1.41067406927000E+00 1.43479287008000E+00 1.45932394813000E+00 
1.48427435072000E+00 1.50965124562000E+00 1.53546192313000E+00 1.56171379815000E+00 
1.58841441233000E+00 1.61557143624000E+00 1.64319267158000E+00 1.67128605339000E+00 
1.69985965236000E+00 1.72892167712000E+00 1.75848047663000E+00 1.78854454257000E+00 
1.81912251176000E+00 1.85022316866000E+00 1.88185544788000E+00 1.91402843677000E+00 
1.94675137801000E+00 1.98003367225000E+00 2.01388488087000E+00 2.04831472865000E+00 
2.08333310664000E+00 2.11895007492000E+00 2.15517586556000E+00 2.19202088554000E+00 
2.22949571972000E+00 2.26761113389000E+00 2.30637807786000E+00 2.34580768864000E+00 
2.38591129359000E+00 2.42670041369000E+00 2.46818676688000E+00 2.51038227138000E+00 
2.55329904913000E+00 2.59694942931000E+00 2.64134595182000E+00 2.68650137092000E+00 
2.73242865889000E+00 2.77914100975000E+00 2.82665184305000E+00 2.87497480775000E+00 
2.92412378608000E+00 2.97411289761000E+00 3.02495650323000E+00 3.07666920934000E+00 
3.12926587198000E+00 3.18276160117000E+00 3.23717176519000E+00 3.29251199502000E+00 
3.34879818885000E+00 3.40604651661000E+00 3.46427342464000E+00 3.52349564040000E+00 
3.58373017729000E+00 3.64499433952000E+00 3.70730572710000E+00 3.77068224089000E+00 
3.83514208773000E+00 3.90070378570000E+00 3.96738616939000E+00 4.03520839537000E+00 
4.10418994764000E+00 4.17435064329000E+00 4.24571063811000E+00 4.31829043244000E+00 
4.39211087707000E+00 4.46719317918000E+00 4.54355890845000E+00 4.62123000329000E+00 
4.70022877710000E+00 4.78057792469000E+00 4.86230052882000E+00 4.94542006682000E+00 
5.02996041732000E+00 5.11594586712000E+00 5.20340111819000E+00 5.29235129472000E+00 
5.38282195038000E+00 5.47483907563000E+00 5.56842910522000E+00 5.66361892575000E+00 
5.76043588341000E+00 5.85890779185000E+00 5.95906294013000E+00 6.06093010089000E+00 
6.16453853860000E+00 6.26991801796000E+00 6.37709881244000E+00 6.48611171303000E+00 
6.59698803701000E+00 6.70975963701000E+00 6.82445891012000E+00 6.94111880723000E+00 
7.05977284247000E+00 7.18045510285000E+00 7.30320025805000E+00 7.42804357036000E+00 
7.55502090487000E+00 7.68416873970000E+00 7.81552417653000E+00 7.94912495123000E+00 
8.08500944471000E+00 8.22321669397000E+00 8.36378640327000E+00 8.50675895557000E+00 
8.65217542412000E+00 8.80007758426000E+00 8.95050792540000E+00 9.10350966329000E+00 
9.25912675235000E+00 9.41740389837000E+00 9.57838657131000E+00 9.74212101837000E+00 
9.90865427729000E+00 1.00780341899000E+01 1.02503094156000E+01 1.04255294460000E+01 
1.06037446182000E+01 1.07850061301000E+01 1.09693660545000E+01 1.11568773546000E+01 
1.13475938986000E+01 1.15415704758000E+01 1.17388628119000E+01 1.19395275851000E+01 
1.21436224425000E+01 1.23512060167000E+01 1.25623379424000E+01 1.27770788737000E+01 
1.29954905016000E+01 1.32176355714000E+01 1.34435779011000E+01 1.36733823996000E+01 
1.39071150853000E+01 1.41448431051000E+01 1.43866347536000E+01 1.46325594929000E+01 
1.48826879724000E+01 1.51370920491000E+01 1.53958448085000E+01 1.56590205852000E+01 
1.59266949846000E+01 1.61989449042000E+01 1.64758485562000E+01 1.67574854897000E+01 
1.70439366135000E+01 1.73352842195000E+01 1.76316120062000E+01 1.79330051029000E+01 
1.82395500940000E+01 1.85513350438000E+01 1.88684495222000E+01 1.91909846301000E+01 
1.95190330255000E+01 1.98526889504000E+01 2.01920482577000E+01 2.05372084387000E+01 
2.08882686513000E+01 2.12453297483000E+01 2.16084943064000E+01 2.19778666558000E+01 
2.23535529101000E+01 2.27356609965000E+01 2.31243006874000E+01 2.35195836314000E+01 
2.39216233857000E+01 2.43305354485000E+01 2.47464372923000E+01 2.51694483977000E+01 
2.55996902876000E+01 2.60372865621000E+01 2.64823629342000E+01 2.69350472658000E+01 
2.73954696042000E+01 2.78637622200000E+01 2.83400596445000E+01 2.88244987087000E+01 
2.93172185826000E+01 2.98183608151000E+01 3.03280693747000E+01 3.08464906907000E+01 
3.13737736956000E+01 3.19100698676000E+01 3.24555332743000E+01 3.30103206165000E+01 
3.35745912742000E+01 3.41485073512000E+01 3.47322337226000E+01 3.53259380817000E+01 
3.59297909882000E+01 3.65439659174000E+01 3.71686393098000E+01 3.78039906221000E+01 
3.84502023784000E+01 3.91074602228000E+01 3.97759529727000E+01 4.04558726733000E+01 
4.11474146522000E+01 4.18507775762000E+01 4.25661635077000E+01 4.32937779633000E+01 
4.40338299725000E+01 4.47865321380000E+01 4.55521006966000E+01 4.63307555812000E+01 
4.71227204844000E+01 4.79282229223000E+01 4.87474943003000E+01 4.95807699790000E+01 
5.04282893426000E+01 5.12902958668000E+01 5.21670371896000E+01 5.30587651817000E+01 
5.39657360193000E+01 5.48882102576000E+01 5.58264529055000E+01 5.67807335021000E+01 
5.77513261938000E+01 5.87385098129000E+01 5.97425679582000E+01 6.07637890763000E+01 
6.18024665441000E+01 6.28588987537000E+01 6.39333891975000E+01 6.50262465558000E+01 
6.61377847856000E+01 6.72683232100000E+01 6.84181866111000E+01 6.95877053222000E+01 
7.07772153235000E+01 7.19870583381000E+01 7.32175819307000E+01 7.44691396067000E+01 
7.57420909145000E+01 7.70368015483000E+01 7.83536434535000E+01 7.96929949333000E+01 
8.10552407574000E+01 
</PP_R>
    <PP_RAB>
5.25159359463000E-06 5.34136225794000E-06 5.43266539126000E-06 5.52552922422000E-06 
5.61998043481000E-06 5.71604615702000E-06 5.81375398868000E-06 5.91313199936000E-06 
6.01420873844000E-06 6.11701324332000E-06 6.22157504773000E-06 6.32792419025000E-06 
6.43609122295000E-06 6.54610722011000E-06 6.65800378720000E-06 6.77181306994000E-06 
6.88756776354000E-06 7.00530112207000E-06 7.12504696806000E-06 7.24683970217000E-06 
7.37071431309000E-06 7.49670638760000E-06 7.62485212079000E-06 7.75518832645000E-06 
7.88775244764000E-06 8.02258256748000E-06 8.15971742005000E-06 8.29919640153000E-06 
8.44105958155000E-06 8.58534771463000E-06 8.73210225199000E-06 8.88136535335000E-06 
9.03317989911000E-06 9.18758950265000E-06 9.34463852288000E-06 9.50437207692000E-06 
9.66683605315000E-06 9.83207712431000E-06 1.00001427610000E-05 1.01710812451000E-05 
1.03449416841000E-05 1.05217740247000E-05 1.07016290673000E-05 1.08845584809000E-05 
1.10706148174000E-05 1.12598515275000E-05 1.14523229749000E-05 1.16480844532000E-05 
1.18471922007000E-05 1.20497034172000E-05 1.22556762804000E-05 1.24651699622000E-05 
1.26782446462000E-05 1.28949615445000E-05 1.31153829157000E-05 1.33395720826000E-05 
1.35675934505000E-05 1.37995125254000E-05 1.40353959333000E-05 1.42753114387000E-05 
1.45193279650000E-05 1.47675156132000E-05 1.50199456828000E-05 1.52766906922000E-05 
1.55378243993000E-05 1.58034218226000E-05 1.60735592631000E-05 1.63483143263000E-05 
1.66277659438000E-05 1.69119943966000E-05 1.72010813382000E-05 1.74951098176000E-05 
1.77941643036000E-05 1.80983307086000E-05 1.84076964137000E-05 1.87223502939000E-05 
1.90423827430000E-05 1.93678857002000E-05 1.96989526762000E-05 2.00356787800000E-05 
2.03781607467000E-05 2.07264969646000E-05 2.10807875041000E-05 2.14411341458000E-05 
2.18076404105000E-05 2.21804115883000E-05 2.25595547691000E-05 2.29451788735000E-05 
2.33373946837000E-05 2.37363148758000E-05 2.41420540519000E-05 2.45547287729000E-05 
2.49744575924000E-05 2.54013610903000E-05 2.58355619076000E-05 2.62771847820000E-05 
2.67263565830000E-05 2.71832063491000E-05 2.76478653244000E-05 2.81204669964000E-05 
2.86011471344000E-05 2.90900438285000E-05 2.95872975293000E-05 3.00930510881000E-05 
3.06074497982000E-05 3.11306414363000E-05 3.16627763054000E-05 3.22040072773000E-05 
3.27544898374000E-05 3.33143821285000E-05 3.38838449970000E-05 3.44630420385000E-05 
3.50521396450000E-05 3.56513070530000E-05 3.62607163916000E-05 3.68805427324000E-05 
3.75109641394000E-05 3.81521617206000E-05 3.88043196795000E-05 3.94676253686000E-05 
4.01422693427000E-05 4.08284454140000E-05 4.15263507077000E-05 4.22361857183000E-05 
4.29581543677000E-05 4.36924640637000E-05 4.44393257590000E-05 4.51989540128000E-05 
4.59715670513000E-05 4.67573868315000E-05 4.75566391042000E-05 4.83695534790000E-05 
4.91963634905000E-05 5.00373066653000E-05 5.08926245900000E-05 5.17625629809000E-05 
5.26473717545000E-05 5.35473050993000E-05 5.44626215486000E-05 5.53935840552000E-05 
5.63404600666000E-05 5.73035216019000E-05 5.82830453301000E-05 5.92793126494000E-05 
6.02926097682000E-05 6.13232277870000E-05 6.23714627825000E-05 6.34376158923000E-05 
6.45219934015000E-05 6.56249068310000E-05 6.67466730262000E-05 6.78876142491000E-05 
6.90480582698000E-05 7.02283384615000E-05 7.14287938959000E-05 7.26497694405000E-05 
7.38916158581000E-05 7.51546899071000E-05 7.64393544441000E-05 7.77459785285000E-05 
7.90749375281000E-05 8.04266132271000E-05 8.18013939358000E-05 8.31996746020000E-05 
8.46218569247000E-05 8.60683494694000E-05 8.75395677854000E-05 8.90359345253000E-05 
9.05578795663000E-05 9.21058401337000E-05 9.36802609266000E-05 9.52815942457000E-05 
9.69103001230000E-05 9.85668464543000E-05 1.00251709133000E-04 1.01965372188000E-04 
1.03708327921000E-04 1.05481077051000E-04 1.07284128852000E-04 1.09118001307000E-04 
1.10983221253000E-04 1.12880324531000E-04 1.14809856141000E-04 1.16772370402000E-04 
1.18768431105000E-04 1.20798611680000E-04 1.22863495358000E-04 1.24963675341000E-04 
1.27099754970000E-04 1.29272347900000E-04 1.31482078273000E-04 1.33729580903000E-04 
1.36015501453000E-04 1.38340496625000E-04 1.40705234345000E-04 1.43110393956000E-04 
1.45556666414000E-04 1.48044754486000E-04 1.50575372950000E-04 1.53149248806000E-04 
1.55767121477000E-04 1.58429743028000E-04 1.61137878378000E-04 1.63892305523000E-04 
1.66693815756000E-04 1.69543213896000E-04 1.72441318521000E-04 1.75388962199000E-04 
1.78386991733000E-04 1.81436268397000E-04 1.84537668191000E-04 1.87692082085000E-04 
1.90900416283000E-04 1.94163592476000E-04 1.97482548112000E-04 2.00858236663000E-04 
2.04291627898000E-04 2.07783708165000E-04 2.11335480670000E-04 2.14947965769000E-04 
2.18622201260000E-04 2.22359242678000E-04 2.26160163604000E-04 2.30026055969000E-04 
2.33958030368000E-04 2.37957216382000E-04 2.42024762900000E-04 2.46161838449000E-04 
2.50369631530000E-04 2.54649350962000E-04 2.59002226225000E-04 2.63429507815000E-04 
2.67932467605000E-04 2.72512399209000E-04 2.77170618351000E-04 2.81908463249000E-04 
2.86727294993000E-04 2.91628497940000E-04 2.96613480112000E-04 3.01683673597000E-04 
3.06840534963000E-04 3.12085545677000E-04 3.17420212530000E-04 3.22846068067000E-04 
3.28364671032000E-04 3.33977606813000E-04 3.39686487898000E-04 3.45492954338000E-04 
3.51398674217000E-04 3.57405344136000E-04 3.63514689695000E-04 3.69728465989000E-04 
3.76048458117000E-04 3.82476481690000E-04 3.89014383355000E-04 3.95664041325000E-04 
4.02427365917000E-04 4.09306300105000E-04 4.16302820072000E-04 4.23418935783000E-04 
4.30656691561000E-04 4.38018166673000E-04 4.45505475928000E-04 4.53120770285000E-04 
4.60866237472000E-04 4.68744102610000E-04 4.76756628859000E-04 4.84906118061000E-04 
4.93194911408000E-04 5.01625390109000E-04 5.10199976078000E-04 5.18921132627000E-04 
5.27791365176000E-04 5.36813221970000E-04 5.45989294816000E-04 5.55322219821000E-04 
5.64814678154000E-04 5.74469396814000E-04 5.84289149415000E-04 5.94276756982000E-04 
6.04435088762000E-04 6.14767063047000E-04 6.25275648012000E-04 6.35963862572000E-04 
6.46834777243000E-04 6.57891515028000E-04 6.69137252315000E-04 6.80575219787000E-04 
6.92208703349000E-04 7.04041045077000E-04 7.16075644173000E-04 7.28315957945000E-04 
7.40765502799000E-04 7.53427855247000E-04 7.66306652938000E-04 7.79405595702000E-04 
7.92728446612000E-04 8.06279033064000E-04 8.20061247880000E-04 8.34079050424000E-04 
8.48336467739000E-04 8.62837595705000E-04 8.77586600216000E-04 8.92587718375000E-04 
9.07845259713000E-04 9.23363607427000E-04 9.39147219637000E-04 9.55200630670000E-04 
9.71528452360000E-04 9.88135375375000E-04 1.00502617056000E-03 1.02220569032000E-03 
1.03967886999000E-03 1.05745072928000E-03 1.07552637371000E-03 1.09391099605000E-03 
1.11260987785000E-03 1.13162839094000E-03 1.15097199896000E-03 1.17064625897000E-03 
1.19065682300000E-03 1.21100943969000E-03 1.23170995596000E-03 1.25276431867000E-03 
1.27417857632000E-03 1.29595888082000E-03 1.31811148923000E-03 1.34064276557000E-03 
1.36355918263000E-03 1.38686732385000E-03 1.41057388522000E-03 1.43468567717000E-03 
1.45920962656000E-03 1.48415277863000E-03 1.50952229908000E-03 1.53532547607000E-03 
1.56156972236000E-03 1.58826257742000E-03 1.61541170958000E-03 1.64302491827000E-03 
1.67111013622000E-03 1.69967543177000E-03 1.72872901119000E-03 1.75827922099000E-03 
1.78833455040000E-03 1.81890363371000E-03 1.84999525285000E-03 1.88161833981000E-03 
1.91378197932000E-03 1.94649541136000E-03 1.97976803386000E-03 2.01360940541000E-03 
2.04802924797000E-03 2.08303744971000E-03 2.11864406780000E-03 2.15485933133000E-03 
2.19169364425000E-03 2.22915758834000E-03 2.26726192627000E-03 2.30601760467000E-03 
2.34543575732000E-03 2.38552770827000E-03 2.42630497516000E-03 2.46777927253000E-03 
2.50996251513000E-03 2.55286682139000E-03 2.59650451688000E-03 2.64088813788000E-03 
2.68603043494000E-03 2.73194437656000E-03 2.77864315294000E-03 2.82614017973000E-03 
2.87444910190000E-03 2.92358379768000E-03 2.97355838251000E-03 3.02438721312000E-03 
3.07608489165000E-03 3.12866626985000E-03 3.18214645332000E-03 3.23654080590000E-03 
3.29186495401000E-03 3.34813479123000E-03 3.40536648278000E-03 3.46357647023000E-03 
3.52278147617000E-03 3.58299850907000E-03 3.64424486810000E-03 3.70653814816000E-03 
3.76989624491000E-03 3.83433735990000E-03 3.89988000581000E-03 3.96654301179000E-03 
4.03434552881000E-03 4.10330703524000E-03 4.17344734238000E-03 4.24478660017000E-03 
4.31734530302000E-03 4.39114429563000E-03 4.46620477903000E-03 4.54254831663000E-03 
4.62019684046000E-03 4.69917265744000E-03 4.77949845579000E-03 4.86119731155000E-03 
4.94429269524000E-03 5.02880847855000E-03 5.11476894121000E-03 5.20219877802000E-03 
5.29112310587000E-03 5.38156747101000E-03 5.47355785633000E-03 5.56712068892000E-03 
5.66228284754000E-03 5.75907167046000E-03 5.85751496323000E-03 5.95764100670000E-03 
6.05947856515000E-03 6.16305689453000E-03 6.26840575089000E-03 6.37555539893000E-03 
6.48453662067000E-03 6.59538072429000E-03 6.70811955317000E-03 6.82278549499000E-03 
6.93941149105000E-03 7.05803104575000E-03 7.17867823620000E-03 7.30138772198000E-03 
7.42619475518000E-03 7.55313519042000E-03 7.68224549524000E-03 7.81356276053000E-03 
7.94712471121000E-03 8.08296971704000E-03 8.22113680365000E-03 8.36166566377000E-03 
8.50459666864000E-03 8.64997087956000E-03 8.79783005973000E-03 8.94821668623000E-03 
9.10117396223000E-03 9.25674582939000E-03 9.41497698051000E-03 9.57591287232000E-03 
9.73959973860000E-03 9.90608460341000E-03 1.00754152946000E-02 1.02476404577000E-02 
1.04228095696000E-02 1.06009729530000E-02 1.07821817907000E-02 1.09664881407000E-02 
1.11539449505000E-02 1.13446060728000E-02 1.15385262809000E-02 1.17357612844000E-02 
1.19363677450000E-02 1.21404032930000E-02 1.23479265440000E-02 1.25589971153000E-02 
1.27736756435000E-02 1.29920238015000E-02 1.32141043166000E-02 1.34399809881000E-02 
1.36697187060000E-02 1.39033834697000E-02 1.41410424063000E-02 1.43827637908000E-02 
1.46286170651000E-02 1.48786728579000E-02 1.51330030055000E-02 1.53916805721000E-02 
1.56547798706000E-02 1.59223764845000E-02 1.61945472890000E-02 1.64713704736000E-02 
1.67529255642000E-02 1.70392934461000E-02 1.73305563873000E-02 1.76267980619000E-02 
1.79281035746000E-02 1.82345594845000E-02 1.85462538305000E-02 1.88632761563000E-02 
1.91857175364000E-02 1.95136706018000E-02 1.98472295672000E-02 2.01864902576000E-02 
2.05315501360000E-02 2.08825083315000E-02 2.12394656675000E-02 2.16025246910000E-02 
2.19717897018000E-02 2.23473667826000E-02 2.27293638295000E-02 2.31178905827000E-02 
2.35130586586000E-02 2.39149815812000E-02 2.43237748153000E-02 2.47395557992000E-02 
2.51624439787000E-02 2.55925608415000E-02 2.60300299517000E-02 2.64749769859000E-02 
2.69275297686000E-02 2.73878183096000E-02 2.78559748408000E-02 2.83321338545000E-02 
2.88164321421000E-02 2.93090088329000E-02 2.98100054349000E-02 3.03195658745000E-02 
3.08378365388000E-02 3.13649663167000E-02 3.19011066425000E-02 3.24464115389000E-02 
3.30010376615000E-02 3.35651443437000E-02 3.41388936422000E-02 3.47224503844000E-02 
3.53159822146000E-02 3.59196596430000E-02 3.65336560947000E-02 3.71581479588000E-02 
3.77933146397000E-02 3.84393386086000E-02 3.90964054556000E-02 3.97647039434000E-02 
4.04444260612000E-02 4.11357670799000E-02 4.18389256085000E-02 4.25541036508000E-02 
4.32815066636000E-02 4.40213436158000E-02 4.47738270481000E-02 4.55391731346000E-02 
4.63176017442000E-02 4.71093365046000E-02 4.79146048657000E-02 4.87336381656000E-02 
4.95666716967000E-02 5.04139447734000E-02 5.12757008009000E-02 5.21521873451000E-02 
5.30436562034000E-02 5.39503634778000E-02 5.48725696476000E-02 5.58105396448000E-02 
5.67645429301000E-02 5.77348535701000E-02 5.87217503163000E-02 5.97255166851000E-02 
6.07464410391000E-02 6.17848166701000E-02 6.28409418834000E-02 6.39151200832000E-02 
6.50076598602000E-02 6.61188750800000E-02 6.72490849730000E-02 6.83986142269000E-02 
6.95677930791000E-02 7.07569574120000E-02 7.19664488496000E-02 7.31966148554000E-02 
7.44478088321000E-02 7.57203902237000E-02 7.70147246182000E-02 7.83311838528000E-02 
7.96701461207000E-02 8.10319960799000E-02 8.24171249635000E-02 8.38259306923000E-02 
8.52588179889000E-02 8.67161984940000E-02 8.81984908850000E-02 8.97061209956000E-02 
9.12395219390000E-02 9.27991342314000E-02 9.43854059194000E-02 9.59987927080000E-02 
9.76397580921000E-02 9.93087734893000E-02 1.01006318375000E-01 1.02732880422000E-01 
1.04488955638000E-01 1.06275048508000E-01 1.08091672144000E-01 1.09939348425000E-01 
1.11818608153000E-01 1.13729991204000E-01 1.15674046680000E-01 1.17651333072000E-01 
1.19662418415000E-01 1.21707880456000E-01 1.23788306815000E-01 1.25904295159000E-01 
1.28056453371000E-01 1.30245399724000E-01 1.32471763060000E-01 1.34736182970000E-01 
1.37039309979000E-01 1.39381805729000E-01 1.41764343174000E-01 1.44187606773000E-01 
1.46652292680000E-01 1.49159108954000E-01 1.51708775753000E-01 1.54302025548000E-01 
1.56939603328000E-01 1.59622266820000E-01 1.62350786701000E-01 1.65125946820000E-01 
1.67948544429000E-01 1.70819390405000E-01 1.73739309486000E-01 1.76709140509000E-01 
1.79729736648000E-01 1.82801965663000E-01 1.85926710145000E-01 1.89104867773000E-01 