<UPF version="2.0.1">
  <PP_INFO>
Generated using Vanderbilt code, version   7  3  6
Author: kfg        Generation date:   11    6   15
Automatically converted from original USPP format to UPF.v1.

Futher converted to UPF.v2 format.
Convert Q_IJ to Q_IJL use the same routine as 'upflib/upf_to_internal.f90' of QE.
The conversion is done by using PseudoPotentialIO.jl package.
Converted by: JYU on 2024-04-30

1        The Pseudo was generated with a Scalar-Relativistic Calculation
1.50000000000E+00    Local Potential cutoff radius
nl pn  l   occ               Rcut            Rcut US             E pseu
3S  3  0  2.00      0.00000000000      1.50000000000     -1.02673521800
3P  3  1  3.00      0.00000000000      1.50000000000     -0.40474260100
</PP_INFO>
  <PP_HEADER element="P" pseudo_type="US" relativistic="scalar" is_ultrasoft="T" is_paw="F" is_coulomb="F" has_so="F" has_wfc="F" has_gipaw="F" core_correction="T" functional="PBE" z_valence="5.0" total_psenergy="-15.1239029042" wfc_cutoff="0.0" rho_cutoff="0.0" l_max="2" mesh_size="903" number_of_wfc="2" number_of_proj="6"/>
  <PP_MESH>
    <PP_R>
0.00000000000000E+00 1.02169263909000E-06 2.06055618223000E-06 3.11687920930000E-06 
4.19095515016000E-06 5.28308236614000E-06 6.39356423293000E-06 7.52270922487000E-06 
8.67083100059000E-06 9.83824849021000E-06 1.10252859838000E-05 1.22322732218000E-05 
1.34595454860000E-05 1.47074436934000E-05 1.59763144903000E-05 1.72665103491000E-05 
1.85783896657000E-05 1.99123168596000E-05 2.12686624746000E-05 2.26478032821000E-05 
2.40501223857000E-05 2.54760093274000E-05 2.69258601962000E-05 2.84000777377000E-05 
2.98990714662000E-05 3.14232577786000E-05 3.29730600698000E-05 3.45489088502000E-05 
3.61512418659000E-05 3.77805042197000E-05 3.94371484949000E-05 4.11216348811000E-05 
4.28344313020000E-05 4.45760135454000E-05 4.63468653955000E-05 4.81474787668000E-05 
4.99783538413000E-05 5.18399992072000E-05 5.37329320002000E-05 5.56576780471000E-05 
5.76147720120000E-05 5.96047575446000E-05 6.16281874316000E-05 6.36856237498000E-05 
6.57776380225000E-05 6.79048113782000E-05 7.00677347121000E-05 7.22670088502000E-05 
7.45032447161000E-05 7.67770635007000E-05 7.90890968351000E-05 8.14399869655000E-05 
8.38303869322000E-05 8.62609607505000E-05 8.87323835954000E-05 9.12453419892000E-05 
9.38005339919000E-05 9.63986693957000E-05 9.90404699215000E-05 1.01726669420000E-04 
1.04458014074000E-04 1.07235262609000E-04 1.10059186501000E-04 1.12930570190000E-04 
1.15850211303000E-04 1.18818920868000E-04 1.21837523548000E-04 1.24906857861000E-04 
1.28027776421000E-04 1.31201146169000E-04 1.34427848618000E-04 1.37708780094000E-04 
1.41044851988000E-04 1.44436991009000E-04 1.47886139439000E-04 1.51393255397000E-04 
1.54959313105000E-04 1.58585303156000E-04 1.62272232794000E-04 1.66021126190000E-04 
1.69833024727000E-04 1.73708987291000E-04 1.77650090561000E-04 1.81657429315000E-04 
1.85732116729000E-04 1.89875284685000E-04 1.94088084090000E-04 1.98371685195000E-04 
2.02727277915000E-04 2.07156072165000E-04 2.11659298194000E-04 2.16238206928000E-04 
2.20894070315000E-04 2.25628181680000E-04 2.30441856085000E-04 2.35336430692000E-04 
2.40313265137000E-04 2.45373741906000E-04 2.50519266720000E-04 2.55751268924000E-04 
2.61071201885000E-04 2.66480543397000E-04 2.71980796090000E-04 2.77573487847000E-04 
2.83260172230000E-04 2.89042428908000E-04 2.94921864103000E-04 3.00900111029000E-04 
3.06978830347000E-04 3.13159710631000E-04 3.19444468830000E-04 3.25834850753000E-04 
3.32332631545000E-04 3.38939616188000E-04 3.45657639997000E-04 3.52488569135000E-04 
3.59434301124000E-04 3.66496765380000E-04 3.73677923744000E-04 3.80979771027000E-04 
3.88404335569000E-04 3.95953679795000E-04 4.03629900794000E-04 4.11435130900000E-04 
4.19371538281000E-04 4.27441327547000E-04 4.35646740358000E-04 4.43990056047000E-04 
4.52473592256000E-04 4.61099705578000E-04 4.69870792210000E-04 4.78789288622000E-04 
4.87857672231000E-04 4.97078462091000E-04 5.06454219592000E-04 5.15987549171000E-04 
5.25681099037000E-04 5.35537561904000E-04 5.45559675743000E-04 5.55750224538000E-04 
5.66112039063000E-04 5.76647997666000E-04 5.87361027070000E-04 5.98254103186000E-04 
6.09330251939000E-04 6.20592550106000E-04 6.32044126178000E-04 6.43688161220000E-04 
6.55527889762000E-04 6.67566600694000E-04 6.79807638179000E-04 6.92254402585000E-04 
7.04910351425000E-04 7.17779000323000E-04 7.30863923986000E-04 7.44168757199000E-04 
7.57697195834000E-04 7.71452997879000E-04 7.85439984478000E-04 7.99662040995000E-04 
8.14123118092000E-04 8.28827232829000E-04 8.43778469776000E-04 8.58980982151000E-04 
8.74438992972000E-04 8.90156796230000E-04 9.06138758082000E-04 9.22389318065000E-04 
9.38912990328000E-04 9.55714364887000E-04 9.72798108897000E-04 9.90168967953000E-04 
1.00783176741000E-03 1.02579141370000E-03 1.04405289575000E-03 1.06262128629000E-03 
1.08150174334000E-03 1.10069951160000E-03 1.12021992388000E-03 1.14006840267000E-03 
1.16025046155000E-03 1.18077170677000E-03 1.20163783883000E-03 1.22285465399000E-03 
1.24442804596000E-03 1.26636400748000E-03 1.28866863202000E-03 1.31134811544000E-03 
1.33440875776000E-03 1.35785696485000E-03 1.38169925026000E-03 1.40594223700000E-03 
1.43059265937000E-03 1.45565736489000E-03 1.48114331614000E-03 1.50705759270000E-03 
1.53340739315000E-03 1.56020003706000E-03 1.58744296699000E-03 1.61514375060000E-03 
1.64331008273000E-03 1.67194978755000E-03 1.70107082070000E-03 1.73068127157000E-03 
1.76078936545000E-03 1.79140346590000E-03 1.82253207705000E-03 1.85418384591000E-03 
1.88636756486000E-03 1.91909217403000E-03 1.95236676378000E-03 1.98620057729000E-03 
2.02060301305000E-03 2.05558362750000E-03 2.09115213772000E-03 2.12731842407000E-03 
2.16409253298000E-03 2.20148467972000E-03 2.23950525123000E-03 2.27816480902000E-03 
2.31747409211000E-03 2.35744402001000E-03 2.39808569571000E-03 2.43941040885000E-03 
2.48142963877000E-03 2.52415505774000E-03 2.56759853423000E-03 2.61177213613000E-03 
2.65668813419000E-03 2.70235900534000E-03 2.74879743625000E-03 2.79601632677000E-03 
2.84402879356000E-03 2.89284817373000E-03 2.94248802853000E-03 2.99296214714000E-03 
3.04428455046000E-03 3.09646949504000E-03 3.14953147704000E-03 3.20348523625000E-03 
3.25834576015000E-03 3.31412828815000E-03 3.37084831574000E-03 3.42852159886000E-03 
3.48716415822000E-03 3.54679228382000E-03 3.60742253939000E-03 3.66907176707000E-03 
3.73175709204000E-03 3.79549592729000E-03 3.86030597846000E-03 3.92620524876000E-03 
3.99321204398000E-03 4.06134497753000E-03 4.13062297567000E-03 4.20106528274000E-03 
4.27269146650000E-03 4.34552142356000E-03 4.41957538495000E-03 4.49487392167000E-03 
4.57143795048000E-03 4.64928873966000E-03 4.72844791492000E-03 4.80893746543000E-03 
4.89077974992000E-03 4.97399750288000E-03 5.05861384089000E-03 5.14465226904000E-03 
5.23213668743000E-03 5.32109139787000E-03 5.41154111056000E-03 5.50351095100000E-03 
5.59702646696000E-03 5.69211363559000E-03 5.78879887058000E-03 5.88710902958000E-03 
5.98707142159000E-03 6.08871381459000E-03 6.19206444322000E-03 6.29715201667000E-03 
6.40400572659000E-03 6.51265525527000E-03 6.62313078382000E-03 6.73546300060000E-03 
6.84968310973000E-03 6.96582283975000E-03 7.08391445245000E-03 7.20399075181000E-03 
7.32608509312000E-03 7.45023139227000E-03 7.57646413514000E-03 7.70481838720000E-03 
7.83532980322000E-03 7.96803463721000E-03 8.10296975250000E-03 8.24017263190000E-03 
8.37968138824000E-03 8.52153477482000E-03 8.66577219628000E-03 8.81243371950000E-03 
8.96156008474000E-03 9.11319271694000E-03 9.26737373725000E-03 9.42414597473000E-03 
9.58355297823000E-03 9.74563902849000E-03 9.91044915047000E-03 1.00780291258000E-02 
1.02484255056000E-02 1.04216856232000E-02 1.05978576076000E-02 1.07769903966000E-02 
1.09591337504000E-02 1.11443382656000E-02 1.13326553891000E-02 1.15241374323000E-02 
1.17188375861000E-02 1.19168099349000E-02 1.21181094725000E-02 1.23227921166000E-02 
1.25309147248000E-02 1.27425351103000E-02 1.29577120580000E-02 1.31765053405000E-02 
1.33989757353000E-02 1.36251850410000E-02 1.38551960950000E-02 1.40890727907000E-02 
1.43268800955000E-02 1.45686840685000E-02 1.48145518789000E-02 1.50645518249000E-02 
1.53187533526000E-02 1.55772270752000E-02 1.58400447926000E-02 1.61072795113000E-02 
1.63790054651000E-02 1.66552981350000E-02 1.69362342707000E-02 1.72218919120000E-02 
1.75123504100000E-02 1.78076904495000E-02 1.81079940712000E-02 1.84133446949000E-02 
1.87238271420000E-02 1.90395276596000E-02 1.93605339445000E-02 1.96869351671000E-02 
2.00188219964000E-02 2.03562866255000E-02 2.06994227966000E-02 2.10483258276000E-02 
2.14030926381000E-02 2.17638217769000E-02 2.21306134488000E-02 2.25035695427000E-02 
2.28827936600000E-02 2.32683911430000E-02 2.36604691048000E-02 2.40591364583000E-02 
2.44645039471000E-02 2.48766841758000E-02 2.52957916416000E-02 2.57219427659000E-02 
2.61552559269000E-02 2.65958514920000E-02 2.70438518517000E-02 2.74993814534000E-02 
2.79625668362000E-02 2.84335366655000E-02 2.89124217694000E-02 2.93993551746000E-02 
2.98944721434000E-02 3.03979102116000E-02 3.09098092264000E-02 3.14303113850000E-02 
3.19595612749000E-02 3.24977059134000E-02 3.30448947884000E-02 3.36012799004000E-02 
3.41670158045000E-02 3.47422596530000E-02 3.53271712398000E-02 3.59219130439000E-02 
3.65266502752000E-02 3.71415509203000E-02 3.77667857888000E-02 3.84025285610000E-02 
3.90489558363000E-02 3.97062471820000E-02 4.03745851831000E-02 4.10541554936000E-02 
4.17451468872000E-02 4.24477513104000E-02 4.31621639357000E-02 4.38885832157000E-02 
4.46272109380000E-02 4.53782522819000E-02 4.61419158747000E-02 4.69184138502000E-02 
4.77079619072000E-02 4.85107793697000E-02 4.93270892477000E-02 5.01571182993000E-02 
5.10010970933000E-02 5.18592600737000E-02 5.27318456247000E-02 5.36190961368000E-02 
5.45212580742000E-02 5.54385820431000E-02 5.63713228617000E-02 5.73197396306000E-02 
5.82840958052000E-02 5.92646592682000E-02 6.02617024047000E-02 6.12755021776000E-02 
6.23063402044000E-02 6.33545028357000E-02 6.44202812344000E-02 6.55039714571000E-02 
6.66058745356000E-02 6.77262965614000E-02 6.88655487699000E-02 7.00239476274000E-02 
7.12018149188000E-02 7.23994778370000E-02 7.36172690740000E-02 7.48555269128000E-02 
7.61145953220000E-02 7.73948240508000E-02 7.86965687267000E-02 8.00201909536000E-02 
8.13660584130000E-02 8.27345449655000E-02 8.41260307552000E-02 8.55409023148000E-02 
8.69795526733000E-02 8.84423814650000E-02 8.99297950407000E-02 9.14422065804000E-02 
9.29800362080000E-02 9.45437111085000E-02 9.61336656460000E-02 9.77503414847000E-02 
9.93941877117000E-02 1.01065660962000E-01 1.02765225543000E-01 1.04493353568000E-01 
1.06250525084000E-01 1.08037228205000E-01 1.09853959249000E-01 1.11701222875000E-01 
1.13579532224000E-01 1.15489409060000E-01 1.17431383918000E-01 1.19405996246000E-01 
1.21413794562000E-01 1.23455336599000E-01 1.25531189467000E-01 1.27641929803000E-01 
1.29788143939000E-01 1.31970428059000E-01 1.34189388367000E-01 1.36445641255000E-01 
1.38739813474000E-01 1.41072542310000E-01 1.43444475757000E-01 1.45856272701000E-01 
1.48308603102000E-01 1.50802148177000E-01 1.53337600595000E-01 1.55915664664000E-01 
1.58537056529000E-01 1.61202504373000E-01 1.63912748613000E-01 1.66668542113000E-01 
1.69470650389000E-01 1.72319851823000E-01 1.75216937878000E-01 1.78162713318000E-01 
1.81157996433000E-01 1.84203619266000E-01 1.87300427842000E-01 1.90449282407000E-01 
1.93651057661000E-01 1.96906643008000E-01 2.00216942799000E-01 2.03582876581000E-01 
2.07005379358000E-01 2.10485401848000E-01 2.14023910746000E-01 2.17621888993000E-01 
2.21280336051000E-01 2.25000268180000E-01 2.28782718716000E-01 2.32628738366000E-01 
2.36539395493000E-01 2.40515776416000E-01 2.44558985710000E-01 2.48670146516000E-01 
2.52850400848000E-01 2.57100909915000E-01 2.61422854443000E-01 2.65817434998000E-01 
2.70285872325000E-01 2.74829407687000E-01 2.79449303205000E-01 2.84146842214000E-01 
2.88923329615000E-01 2.93780092241000E-01 2.98718479225000E-01 3.03739862372000E-01 
3.08845636543000E-01 3.14037220042000E-01 3.19316055008000E-01 3.24683607819000E-01 
3.30141369495000E-01 3.35690856118000E-01 3.41333609246000E-01 3.47071196348000E-01 
3.52905211234000E-01 3.58837274501000E-01 3.64869033984000E-01 3.71002165210000E-01 
3.77238371865000E-01 3.83579386269000E-01 3.90026969857000E-01 3.96582913665000E-01 
4.03249038830000E-01 4.10027197097000E-01 4.16919271331000E-01 4.23927176042000E-01 
4.31052857915000E-01 4.38298296352000E-01 4.45665504021000E-01 4.53156527416000E-01 
4.60773447425000E-01 4.68518379908000E-01 4.76393476286000E-01 4.84400924135000E-01 
4.92542947798000E-01 5.00821809000000E-01 5.09239807480000E-01 5.17799281623000E-01 
5.26502609116000E-01 5.35352207607000E-01 5.44350535373000E-01 5.53500092010000E-01 
5.62803419117000E-01 5.72263101014000E-01 5.81881765450000E-01 5.91662084339000E-01 
6.01606774498000E-01 6.11718598405000E-01 6.22000364966000E-01 6.32454930293000E-01 
6.43085198498000E-01 6.53894122504000E-01 6.64884704857000E-01 6.76059998568000E-01 
6.87423107957000E-01 6.98977189517000E-01 7.10725452790000E-01 7.22671161256000E-01 
7.34817633245000E-01 7.47168242856000E-01 7.59726420892000E-01 7.72495655817000E-01 
7.85479494723000E-01 7.98681544316000E-01 8.12105471916000E-01 8.25755006478000E-01 
8.39633939628000E-01 8.53746126713000E-01 8.68095487877000E-01 8.82686009146000E-01 
8.97521743536000E-01 9.12606812179000E-01 9.27945405470000E-01 9.43541784227000E-01 
9.59400280879000E-01 9.75525300665000E-01 9.91921322860000E-01 1.00859290202000E+00 
1.02554466925000E+00 1.04278133348000E+00 1.06030768279000E+00 1.07812858571000E+00 
1.09624899261000E+00 1.11467393706000E+00 1.13340853721000E+00 1.15245799724000E+00 
1.17182760879000E+00 1.19152275243000E+00 1.21154889917000E+00 1.23191161194000E+00 
1.25261654719000E+00 1.27366945642000E+00 1.29507618780000E+00 1.31684268778000E+00 
1.33897500275000E+00 1.36147928072000E+00 1.38436177301000E+00 1.40762883604000E+00 
1.43128693301000E+00 1.45534263578000E+00 1.47980262663000E+00 1.50467370017000E+00 
1.52996276520000E+00 1.55567684660000E+00 1.58182308735000E+00 1.60840875046000E+00 
1.63544122101000E+00 1.66292800819000E+00 1.69087674740000E+00 1.71929520235000E+00 
1.74819126724000E+00 1.77757296895000E+00 1.80744846925000E+00 1.83782606707000E+00 
1.86871420084000E+00 1.90012145079000E+00 1.93205654136000E+00 1.96452834361000E+00 
1.99754587770000E+00 2.03111831537000E+00 2.06525498252000E+00 2.09996536179000E+00 
2.13525909515000E+00 2.17114598665000E+00 2.20763600512000E+00 2.24473928688000E+00 
2.28246613866000E+00 2.32082704038000E+00 2.35983264808000E+00 2.39949379691000E+00 
2.43982150411000E+00 2.48082697209000E+00 2.52252159151000E+00 2.56491694447000E+00 
2.60802480775000E+00 2.65185715601000E+00 2.69642616521000E+00 2.74174421589000E+00 
2.78782389671000E+00 2.83467800787000E+00 2.88231956470000E+00 2.93076180128000E+00 
2.98001817409000E+00 3.03010236577000E+00 3.08102828893000E+00 3.13281008997000E+00 
3.18546215308000E+00 3.23899910415000E+00 3.29343581490000E+00 3.34878740701000E+00 
3.40506925626000E+00 3.46229699686000E+00 3.52048652577000E+00 3.57965400714000E+00 
3.63981587675000E+00 3.70098884661000E+00 3.76318990961000E+00 3.82643634423000E+00 
3.89074571933000E+00 3.95613589903000E+00 4.02262504769000E+00 4.09023163496000E+00 
4.15897444086000E+00 4.22887256108000E+00 4.29994541219000E+00 4.37221273713000E+00 
4.44569461060000E+00 4.52041144471000E+00 4.59638399463000E+00 4.67363336431000E+00 
4.75218101243000E+00 4.83204875828000E+00 4.91325878784000E+00 4.99583366000000E+00 
5.07979631273000E+00 5.16517006955000E+00 5.25197864594000E+00 5.34024615593000E+00 
5.42999711887000E+00 5.52125646614000E+00 5.61404954815000E+00 5.70840214135000E+00 
5.80434045541000E+00 5.90189114047000E+00 6.00108129457000E+00 6.10193847117000E+00 
6.20449068681000E+00 6.30876642886000E+00 6.41479466349000E+00 6.52260484366000E+00 
6.63222691733000E+00 6.74369133579000E+00 6.85702906210000E+00 6.97227157968000E+00 
7.08945090108000E+00 7.20859957687000E+00 7.32975070468000E+00 7.45293793836000E+00 
7.57819549739000E+00 7.70555817635000E+00 7.83506135456000E+00 7.96674100598000E+00 
8.10063370912000E+00 8.23677665726000E+00 8.37520766878000E+00 8.51596519760000E+00 
8.65908834397000E+00 8.80461686521000E+00 8.95259118686000E+00 9.10305241386000E+00 
9.25604234194000E+00 9.41160346930000E+00 9.56977900836000E+00 9.73061289779000E+00 
9.89414981471000E+00 1.00604351871000E+01 1.02295152064000E+01 1.04014368403000E+01 
1.05762478460000E+01 1.07539967833000E+01 1.09347330279000E+01 1.11185067855000E+01 
1.13053691056000E+01 1.14953718957000E+01 1.16885679353000E+01 1.18850108915000E+01 
1.20847553329000E+01 1.22878567453000E+01 1.24943715472000E+01 1.27043571051000E+01 
1.29178717497000E+01 1.31349747919000E+01 1.33557265395000E+01 1.35801883140000E+01 
1.38084224672000E+01 1.40404923990000E+01 1.42764625747000E+01 1.45163985432000E+01 
1.47603669548000E+01 1.50084355802000E+01 1.52606733288000E+01 1.55171502684000E+01 
1.57779376441000E+01 1.60431078987000E+01 1.63127346922000E+01 1.65868929226000E+01 
1.68656587468000E+01 1.71491096016000E+01 1.74373242251000E+01 1.77303826787000E+01 
1.80283663696000E+01 1.83313580728000E+01 1.86394419547000E+01 1.89527035961000E+01 
1.92712300162000E+01 1.95951096965000E+01 1.99244326057000E+01 2.02592902245000E+01 
2.05997755711000E+01 2.09459832269000E+01 2.12980093630000E+01 2.16559517666000E+01 
2.20199098685000E+01 2.23899847705000E+01 2.27662792736000E+01 2.31488979065000E+01 
2.35379469544000E+01 2.39335344893000E+01 2.43357703989000E+01 2.47447664181000E+01 
2.51606361596000E+01 2.55834951453000E+01 2.60134608388000E+01 2.64506526779000E+01 
2.68951921074000E+01 2.73472026134000E+01 2.78068097574000E+01 2.82741412109000E+01 
2.87493267911000E+01 2.92324984973000E+01 2.97237905467000E+01 3.02233394127000E+01 
3.07312838619000E+01 3.12477649934000E+01 3.17729262774000E+01 3.23069135954000E+01 
3.28498752808000E+01 3.34019621596000E+01 3.39633275929000E+01 3.45341275191000E+01 
3.51145204975000E+01 3.57046677520000E+01 3.63047332163000E+01 3.69148835790000E+01 
3.75352883303000E+01 3.81661198088000E+01 3.88075532495000E+01 3.94597668326000E+01 
4.01229417327000E+01 4.07972621692000E+01 4.14829154578000E+01 4.21800920620000E+01 
4.28889856466000E+01 4.36097931310000E+01 4.43427147442000E+01 4.50879540801000E+01 
4.58457181545000E+01 4.66162174623000E+01 4.73996660360000E+01 4.81962815053000E+01 
4.90062851573000E+01 4.98299019984000E+01 5.06673608162000E+01 5.15188942435000E+01 
5.23847388230000E+01 5.32651350726000E+01 5.41603275524000E+01 5.50705649327000E+01 
5.59961000632000E+01 5.69371900429000E+01 5.78940962918000E+01 5.88670846232000E+01 
5.98564253179000E+01 6.08623931992000E+01 6.18852677091000E+01 6.29253329860000E+01 
6.39828779435000E+01 6.50581963510000E+01 6.61515869149000E+01 6.72633533618000E+01 
6.83938045230000E+01 6.95432544199000E+01 7.07120223515000E+01 7.19004329831000E+01 
7.31088164364000E+01 7.43375083813000E+01 7.55868501289000E+01 7.68571887268000E+01 
7.81488770548000E+01 7.94622739235000E+01 8.07977441740000E+01 8.21556587788000E+01 
8.35363949450000E+01 8.49403362194000E+01 8.63678725947000E+01 8.78194006180000E+01 
8.92953235008000E+01 9.07960512312000E+01 9.23220006877000E+01 9.38735957548000E+01 
9.54512674413000E+01 9.70554539994000E+01 9.86866010468000E+01 1.00345161690000E+02 
1.02031596652000E+02 1.03746374397000E+02 1.05489971263000E+02 1.07262871594000E+02 
1.09065567874000E+02 1.10898560863000E+02 1.12762359738000E+02 1.14657482233000E+02 
1.16584454782000E+02 1.18543812669000E+02 1.20536100172000E+02 1.22561870716000E+02 
1.24621687030000E+02 1.26716121297000E+02 1.28845755319000E+02 1.31011180673000E+02 
1.33212998881000E+02 1.35451821574000E+02 1.37728270661000E+02 1.40042978503000E+02 
1.42396588089000E+02 1.44789753216000E+02 1.47223138667000E+02 1.49697420398000E+02 
1.52213285725000E+02 1.54771433515000E+02 1.57372574383000E+02 1.60017430883000E+02 
1.62706737716000E+02 1.65441241928000E+02 1.68221703121000E+02 1.71048893664000E+02 
1.73923598904000E+02 1.76846617391000E+02 1.79818761092000E+02 1.82840855623000E+02 
1.85913740472000E+02 1.89038269240000E+02 1.92215309870000E+02 1.95445744894000E+02 
1.98730471677000E+02 2.02070402664000E+02 2.05466465634000E+02 
</PP_R>
    <PP_RAB>
1.01320218395000E-06 1.03023039460000E-06 1.04754478699000E-06 1.06515017077000E-06 
1.08305143645000E-06 1.10125355672000E-06 1.11976158783000E-06 1.13858067103000E-06 
1.15771603396000E-06 1.17717299212000E-06 1.19695695035000E-06 1.21707340431000E-06 
1.23752794205000E-06 1.25832624551000E-06 1.27947409212000E-06 1.30097735643000E-06 
1.32284201171000E-06 1.34507413161000E-06 1.36767989186000E-06 1.39066557198000E-06 
1.41403755704000E-06 1.43780233941000E-06 1.46196652055000E-06 1.48653681291000E-06 
1.51152004172000E-06 1.53692314693000E-06 1.56275318511000E-06 1.58901733145000E-06 
1.61572288172000E-06 1.64287725428000E-06 1.67048799220000E-06 1.69856276530000E-06 
1.72710937232000E-06 1.75613574304000E-06 1.78564994054000E-06 1.81566016340000E-06 
1.84617474797000E-06 1.87720217074000E-06 1.90875105062000E-06 1.94083015140000E-06 
1.97344838415000E-06 2.00661480969000E-06 2.04033864114000E-06 2.07462924645000E-06 
2.10949615099000E-06 2.14494904025000E-06 2.18099776249000E-06 2.21765233145000E-06 
2.25492292922000E-06 2.29281990896000E-06 2.33135379787000E-06 2.37053530004000E-06 
2.41037529949000E-06 2.45088486312000E-06 2.49207524387000E-06 2.53395788377000E-06 
2.57654441715000E-06 2.61984667388000E-06 2.66387668264000E-06 2.70864667428000E-06 
2.75416908518000E-06 2.80045656077000E-06 2.84752195896000E-06 2.89537835379000E-06 
2.94403903899000E-06 2.99351753175000E-06 3.04382757641000E-06 3.09498314830000E-06 
3.14699845763000E-06 3.19988795343000E-06 3.25366632758000E-06 3.30834851884000E-06 
3.36394971708000E-06 3.42048536743000E-06 3.47797117460000E-06 3.53642310723000E-06 
3.59585740236000E-06 3.65629056988000E-06 3.71773939719000E-06 3.78022095379000E-06 
3.84375259607000E-06 3.90835197212000E-06 3.97403702663000E-06 4.04082600587000E-06 
4.10873746276000E-06 4.17779026203000E-06 4.24800358546000E-06 4.31939693720000E-06 
4.39199014919000E-06 4.46580338669000E-06 4.54085715385000E-06 4.61717229941000E-06 
4.69477002253000E-06 4.77367187861000E-06 4.85389978536000E-06 4.93547602882000E-06 
5.01842326957000E-06 5.10276454906000E-06 5.18852329595000E-06 5.27572333268000E-06 
5.36438888203000E-06 5.45454457391000E-06 5.54621545212000E-06 5.63942698140000E-06 
5.73420505444000E-06 5.83057599909000E-06 5.92856658567000E-06 6.02820403443000E-06 
6.12951602307000E-06 6.23253069446000E-06 6.33727666445000E-06 6.44378302982000E-06 
6.55207937636000E-06 6.66219578708000E-06 6.77416285057000E-06 6.88801166953000E-06 
7.00377386935000E-06 7.12148160695000E-06 7.24116757968000E-06 7.36286503440000E-06 
7.48660777676000E-06 7.61243018053000E-06 7.74036719719000E-06 7.87045436561000E-06 
8.00272782197000E-06 8.13722430974000E-06 8.27398118992000E-06 8.41303645140000E-06 
8.55442872156000E-06 8.69819727692000E-06 8.84438205412000E-06 8.99302366098000E-06 
9.14416338780000E-06 9.29784321880000E-06 9.45410584382000E-06 9.61299467013000E-06 
9.77455383456000E-06 9.93882821568000E-06 1.01058634463000E-05 1.02757059262000E-05 
1.04484028350000E-05 1.06240021450000E-05 1.08025526351000E-05 1.09841039037000E-05 
1.11687063829000E-05 1.13564113524000E-05 1.15472709536000E-05 1.17413382043000E-05 
1.19386670133000E-05 1.21393121955000E-05 1.23433294869000E-05 1.25507755604000E-05 
1.27617080410000E-05 1.29761855227000E-05 1.31942675837000E-05 1.34160148039000E-05 
1.36414887812000E-05 1.38707521486000E-05 1.41038685919000E-05 1.43409028672000E-05 
1.45819208188000E-05 1.48269893978000E-05 1.50761766802000E-05 1.53295518865000E-05 
1.55871854002000E-05 1.58491487878000E-05 1.61155148186000E-05 1.63863574850000E-05 
1.66617520228000E-05 1.69417749321000E-05 1.72265039989000E-05 1.75160183165000E-05 
1.78103983074000E-05 1.81097257456000E-05 1.84140837797000E-05 1.87235569555000E-05 
1.90382312397000E-05 1.93581940439000E-05 1.96835342487000E-05 2.00143422284000E-05 
2.03507098764000E-05 2.06927306301000E-05 2.10404994977000E-05 2.13941130838000E-05 
2.17536696166000E-05 2.21192689753000E-05 2.24910127176000E-05 2.28690041080000E-05 
2.32533481467000E-05 2.36441515982000E-05 2.40415230217000E-05 2.44455728005000E-05 
2.48564131735000E-05 2.52741582655000E-05 2.56989241196000E-05 2.61308287289000E-05 
2.65699920698000E-05 2.70165361349000E-05 2.74705849670000E-05 2.79322646939000E-05 
2.84017035628000E-05 2.88790319764000E-05 2.93643825290000E-05 2.98578900434000E-05 
3.03596916081000E-05 3.08699266157000E-05 3.13887368014000E-05 3.19162662825000E-05 
3.24526615983000E-05 3.29980717511000E-05 3.35526482470000E-05 3.41165451388000E-05 
3.46899190680000E-05 3.52729293090000E-05 3.58657378126000E-05 3.64685092518000E-05 
3.70814110670000E-05 3.77046135126000E-05 3.83382897044000E-05 3.89826156676000E-05 
3.96377703858000E-05 4.03039358507000E-05 4.09812971125000E-05 4.16700423314000E-05 
4.23703628301000E-05 4.30824531464000E-05 4.38065110878000E-05 4.45427377862000E-05 
4.52913377537000E-05 4.60525189397000E-05 4.68264927881000E-05 4.76134742967000E-05 
4.84136820766000E-05 4.92273384128000E-05 5.00546693262000E-05 5.08959046362000E-05 
5.17512780249000E-05 5.26210271013000E-05 5.35053934680000E-05 5.44046227881000E-05 
5.53189648532000E-05 5.62486736531000E-05 5.71940074463000E-05 5.81552288316000E-05 
5.91326048210000E-05 6.01264069142000E-05 6.11369111738000E-05 6.21643983018000E-05 
6.32091537179000E-05 6.42714676387000E-05 6.53516351583000E-05 6.64499563300000E-05 
6.75667362502000E-05 6.87022851428000E-05 6.98569184452000E-05 7.10309568963000E-05 
7.22247266256000E-05 7.34385592433000E-05 7.46727919331000E-05 7.59277675451000E-05 
7.72038346920000E-05 7.85013478449000E-05 7.98206674326000E-05 8.11621599411000E-05 
8.25261980159000E-05 8.39131605653000E-05 8.53234328655000E-05 8.67574066679000E-05 
8.82154803079000E-05 8.96980588151000E-05 9.12055540266000E-05 9.27383847006000E-05 
9.42969766334000E-05 9.58817627771000E-05 9.74931833603000E-05 9.91316860103000E-05 
1.00797725877000E-04 1.02491765760000E-04 1.04214276238000E-04 1.05965735795000E-04 
1.07746630960000E-04 1.09557456438000E-04 1.11398715248000E-04 1.13270918861000E-04 
1.15174587346000E-04 1.17110249513000E-04 1.19078443058000E-04 1.21079714714000E-04 
1.23114620403000E-04 1.25183725388000E-04 1.27287604436000E-04 1.29426841971000E-04 
1.31602032238000E-04 1.33813779471000E-04 1.36062698059000E-04 1.38349412716000E-04 
1.40674558655000E-04 1.43038781764000E-04 1.45442738789000E-04 1.47887097509000E-04 
1.50372536930000E-04 1.52899747466000E-04 1.55469431138000E-04 1.58082301763000E-04 
1.60739085154000E-04 1.63440519326000E-04 1.66187354692000E-04 1.68980354281000E-04 
1.71820293944000E-04 1.74707962571000E-04 1.77644162311000E-04 1.80629708794000E-04 
1.83665431357000E-04 1.86752173277000E-04 1.89890792002000E-04 1.93082159389000E-04 
1.96327161952000E-04 1.99626701099000E-04 2.02981693392000E-04 2.06393070793000E-04 
2.09861780931000E-04 2.13388787356000E-04 2.16975069817000E-04 2.20621624526000E-04 
2.24329464439000E-04 2.28099619533000E-04 2.31933137100000E-04 2.35831082030000E-04 
2.39794537110000E-04 2.43824603325000E-04 2.47922400165000E-04 2.52089065932000E-04 
2.56325758061000E-04 2.60633653438000E-04 2.65013948727000E-04 2.69467860706000E-04 
2.73996626602000E-04 2.78601504433000E-04 2.83283773363000E-04 2.88044734051000E-04 
2.92885709017000E-04 2.97808043009000E-04 3.02813103371000E-04 3.07902280432000E-04 
3.13076987883000E-04 3.18338663178000E-04 3.23688767926000E-04 3.29128788302000E-04 
3.34660235458000E-04 3.40284645942000E-04 3.46003582127000E-04 3.51818632643000E-04 
3.57731412820000E-04 3.63743565133000E-04 3.69856759665000E-04 3.76072694563000E-04 
3.82393096517000E-04 3.88819721235000E-04 3.95354353930000E-04 4.01998809822000E-04 
4.08754934635000E-04 4.15624605113000E-04 4.22609729544000E-04 4.29712248283000E-04 
4.36934134298000E-04 4.44277393716000E-04 4.51744066378000E-04 4.59336226408000E-04 
4.67055982787000E-04 4.74905479943000E-04 4.82886898341000E-04 4.91002455094000E-04 
4.99254404575000E-04 5.07645039045000E-04 5.16176689290000E-04 5.24851725268000E-04 
5.33672556766000E-04 5.42641634074000E-04 5.51761448657000E-04 5.61034533858000E-04 
5.70463465592000E-04 5.80050863068000E-04 5.89799389513000E-04 5.99711752915000E-04 
6.09790706771000E-04 6.20039050856000E-04 6.30459631997000E-04 6.41055344867000E-04 
6.51829132789000E-04 6.62783988550000E-04 6.73922955236000E-04 6.85249127077000E-04 
6.96765650303000E-04 7.08475724024000E-04 7.20382601113000E-04 7.32489589112000E-04 
7.44800051151000E-04 7.57317406882000E-04 7.70045133429000E-04 7.82986766354000E-04 
7.96145900638000E-04 8.09526191679000E-04 8.23131356313000E-04 8.36965173839000E-04 
8.51031487072000E-04 8.65334203413000E-04 8.79877295930000E-04 8.94664804465000E-04 
9.09700836753000E-04 9.24989569568000E-04 9.40535249878000E-04 9.56342196028000E-04 
9.72414798937000E-04 9.88757523320000E-04 1.00537490893000E-03 1.02227157181000E-03 
1.03945220559000E-03 1.05692158278000E-03 1.07468455609000E-03 1.09274605980000E-03 
1.11111111111000E-03 1.12978481154000E-03 1.14877234835000E-03 1.16807899597000E-03 
1.18771011750000E-03 1.20767116613000E-03 1.22796768675000E-03 1.24860531740000E-03 
1.26958979088000E-03 1.29092693636000E-03 1.31262268096000E-03 1.33468305141000E-03 
1.35711417573000E-03 1.37992228494000E-03 1.40311371477000E-03 1.42669490743000E-03 
1.45067241341000E-03 1.47505289327000E-03 1.49984311953000E-03 1.52504997852000E-03 
1.55068047232000E-03 1.57674172066000E-03 1.60324096295000E-03 1.63018556026000E-03 
1.65758299738000E-03 1.68544088488000E-03 1.71376696123000E-03 1.74256909499000E-03 
1.77185528692000E-03 1.80163367227000E-03 1.83191252300000E-03 1.86270025010000E-03 