<UPF version="2.0.1">
  <PP_INFO>
Generated using Vanderbilt code, version   7  3  6
Author: kfg        Generation date:   31    3   15
Automatically converted from original USPP format to UPF.v1.

Futher converted to UPF.v2 format.
Convert Q_IJ to Q_IJL use the same routine as 'upflib/upf_to_internal.f90' of QE.
The conversion is done by using PseudoPotentialIO.jl package.
Converted by: JYU on 2024-04-30

1        The Pseudo was generated with a Scalar-Relativistic Calculation
2.23000000000E+00    Local Potential cutoff radius
nl pn  l   occ               Rcut            Rcut US             E pseu
4P  4  1  6.00      0.00000000000      1.53000000000     -4.15068716400
4D  4  2  9.50      0.00000000000      1.63000000000     -0.66209811300
5S  5  0  0.00      0.00000000000      2.50000000000     -0.51147695700
5P  5  1  0.00      0.00000000000      1.53000000000     -0.21800980700
</PP_INFO>
  <PP_HEADER element="Pd" pseudo_type="US" relativistic="scalar" is_ultrasoft="T" is_paw="F" is_coulomb="F" has_so="F" has_wfc="F" has_gipaw="F" core_correction="T" functional="PBE" z_valence="16.0" total_psenergy="-198.191594214" wfc_cutoff="0.0" rho_cutoff="0.0" l_max="2" mesh_size="887" number_of_wfc="4" number_of_proj="6"/>
  <PP_MESH>
    <PP_R>
0.00000000000000E+00 1.24392416006000E-09 2.51933841015000E-09 3.82703992570000E-09 
5.16784606273000E-09 6.54259486872000E-09 7.95214560642000E-09 9.39737929093000E-09 
1.08791992404000E-08 1.23985316404000E-08 1.39563261232000E-08 1.55535563612000E-08 
1.71912206751000E-08 1.88703426585000E-08 2.05919718173000E-08 2.23571842258000E-08 
2.41670831991000E-08 2.60227999831000E-08 2.79254944611000E-08 2.98763558791000E-08 
3.18766035891000E-08 3.39274878109000E-08 3.60302904140000E-08 3.81863257184000E-08 
4.03969413164000E-08 4.26635189147000E-08 4.49874751981000E-08 4.73702627149000E-08 
4.98133707848000E-08 5.23183264300000E-08 5.48866953293000E-08 5.75200827968000E-08 
6.02201347854000E-08 6.29885389156000E-08 6.58270255300000E-08 6.87373687751000E-08 
7.17213877102000E-08 7.47809474443000E-08 7.79179603019000E-08 8.11343870180000E-08 
8.44322379641000E-08 8.78135744043000E-08 9.12805097841000E-08 9.48352110509000E-08 
9.84799000087000E-08 1.02216854707000E-07 1.06048410863000E-07 1.09976963326000E-07 
1.14004967567000E-07 1.18134941222000E-07 1.22369465657000E-07 1.26711187589000E-07 
1.31162820734000E-07 1.35727147510000E-07 1.40407020767000E-07 1.45205365580000E-07 
1.50125181071000E-07 1.55169542284000E-07 1.60341602108000E-07 1.65644593251000E-07 
1.71081830253000E-07 1.76656711566000E-07 1.82372721671000E-07 1.88233433260000E-07 
1.94242509470000E-07 2.00403706168000E-07 2.06720874303000E-07 2.13197962311000E-07 
2.19839018583000E-07 2.26648193994000E-07 2.33629744502000E-07 2.40788033802000E-07 
2.48127536059000E-07 2.55652838700000E-07 2.63368645284000E-07 2.71279778441000E-07 
2.79391182889000E-07 2.87707928517000E-07 2.96235213563000E-07 3.04978367858000E-07 
3.13942856158000E-07 3.23134281559000E-07 3.32558389003000E-07 3.42221068862000E-07 
3.52128360626000E-07 3.62286456675000E-07 3.72701706151000E-07 3.83380618922000E-07 
3.94329869656000E-07 4.05556301993000E-07 4.17066932818000E-07 4.28868956649000E-07 
4.40969750135000E-07 4.53376876668000E-07 4.66098091104000E-07 4.79141344616000E-07 
4.92514789664000E-07 5.06226785084000E-07 5.20285901321000E-07 5.34700925780000E-07 
5.49480868321000E-07 5.64634966888000E-07 5.80172693288000E-07 5.96103759103000E-07 
6.12438121770000E-07 6.29185990796000E-07 6.46357834146000E-07 6.63964384779000E-07 
6.82016647364000E-07 7.00525905152000E-07 7.19503727031000E-07 7.38961974759000E-07 
7.58912810373000E-07 7.79368703795000E-07 8.00342440625000E-07 8.21847130130000E-07 
8.43896213442000E-07 8.66503471955000E-07 8.89683035943000E-07 9.13449393386000E-07 
9.37817399033000E-07 9.62802283679000E-07 9.88419663692000E-07 1.01468555077000E-06 
1.04161636194000E-06 1.06922892984000E-06 1.09754051323000E-06 1.12656880776000E-06 
1.15633195707000E-06 1.18684856409000E-06 1.21813770269000E-06 1.25021892961000E-06 
1.28311229666000E-06 1.31683836325000E-06 1.35141820929000E-06 1.38687344830000E-06 
1.42322624095000E-06 1.46049930894000E-06 1.49871594913000E-06 1.53790004817000E-06 
1.57807609741000E-06 1.61926920817000E-06 1.66150512750000E-06 1.70481025421000E-06 
1.74921165543000E-06 1.79473708347000E-06 1.84141499320000E-06 1.88927455985000E-06 
1.93834569720000E-06 1.98865907630000E-06 2.04024614466000E-06 2.09313914587000E-06 
2.14737113979000E-06 2.20297602316000E-06 2.25998855086000E-06 2.31844435757000E-06 
2.37837998007000E-06 2.43983288008000E-06 2.50284146766000E-06 2.56744512522000E-06 
2.63368423217000E-06 2.70160019009000E-06 2.77123544867000E-06 2.84263353221000E-06 
2.91583906685000E-06 2.99089780842000E-06 3.06785667107000E-06 3.14676375661000E-06 
3.22766838453000E-06 3.31062112286000E-06 3.39567381976000E-06 3.48287963592000E-06 
3.57229307784000E-06 3.66397003181000E-06 3.75796779893000E-06 3.85434513084000E-06 
3.95316226653000E-06 4.05448096992000E-06 4.15836456850000E-06 4.26487799290000E-06 
4.37408781747000E-06 4.48606230191000E-06 4.60087143393000E-06 4.71858697296000E-06 
4.83928249504000E-06 4.96303343881000E-06 5.08991715264000E-06 5.22001294298000E-06 
5.35340212393000E-06 5.49016806808000E-06 5.63039625858000E-06 5.77417434263000E-06 
5.92159218620000E-06 6.07274193025000E-06 6.22771804829000E-06 6.38661740543000E-06 
6.54953931895000E-06 6.71658562035000E-06 6.88786071900000E-06 7.06347166742000E-06 
7.24352822816000E-06 7.42814294244000E-06 7.61743120046000E-06 7.81151131355000E-06 
8.01050458809000E-06 8.21453540136000E-06 8.42373127926000E-06 8.63822297602000E-06 
8.85814455593000E-06 9.08363347715000E-06 9.31483067758000E-06 9.55188066301000E-06 
9.79493159739000E-06 1.00441353955000E-05 1.02996478177000E-05 1.05616285677000E-05 
1.08302413920000E-05 1.11056541823000E-05 1.13880390806000E-05 1.16775725867000E-05 
1.19744356683000E-05 1.22788138746000E-05 1.25908974519000E-05 1.29108814626000E-05 
1.32389659070000E-05 1.35753558487000E-05 1.39202615424000E-05 1.42738985652000E-05 
1.46364879519000E-05 1.50082563326000E-05 1.53894360747000E-05 1.57802654279000E-05 
1.61809886733000E-05 1.65918562759000E-05 1.70131250414000E-05 1.74450582765000E-05 
1.78879259535000E-05 1.83420048791000E-05 1.88075788674000E-05 1.92849389174000E-05 
1.97743833945000E-05 2.02762182176000E-05 2.07907570497000E-05 2.13183214944000E-05 
2.18592412966000E-05 2.24138545487000E-05 2.29825079022000E-05 2.35655567838000E-05 
2.41633656182000E-05 2.47763080553000E-05 2.54047672040000E-05 2.60491358718000E-05 
2.67098168101000E-05 2.73872229660000E-05 2.80817777404000E-05 2.87939152526000E-05 
2.95240806118000E-05 3.02727301950000E-05 3.10403319326000E-05 3.18273656008000E-05 
3.26343231211000E-05 3.34617088683000E-05 3.43100399854000E-05 3.51798467070000E-05 
3.60716726906000E-05 3.69860753564000E-05 3.79236262360000E-05 3.88849113290000E-05 
3.98705314700000E-05 4.08811027037000E-05 4.19172566700000E-05 4.29796409988000E-05 
4.40689197150000E-05 4.51857736531000E-05 4.63309008833000E-05 4.75050171473000E-05 
4.87088563061000E-05 4.99431707982000E-05 5.12087321105000E-05 5.25063312599000E-05 
5.38367792882000E-05 5.52009077687000E-05 5.65995693261000E-05 5.80336381694000E-05 
5.95040106383000E-05 6.10116057634000E-05 6.25573658409000E-05 6.41422570210000E-05 
6.57672699124000E-05 6.74334202009000E-05 6.91417492848000E-05 7.08933249254000E-05 
7.26892419144000E-05 7.45306227585000E-05 7.64186183805000E-05 7.83544088393000E-05 
8.03392040669000E-05 8.23742446248000E-05 8.44608024798000E-05 8.66001817983000E-05 
8.87937197621000E-05 9.10427874039000E-05 9.33487904640000E-05 9.57131702696000E-05 
9.81374046349000E-05 1.00623008785000E-04 1.03171536304000E-04 1.05784580105000E-04 
1.08463773424000E-04 1.11210790845000E-04 1.14027349343000E-04 1.16915209359000E-04 
1.19876175899000E-04 1.22912099664000E-04 1.26024878205000E-04 1.29216457110000E-04 
1.32488831220000E-04 1.35844045874000E-04 1.39284198192000E-04 1.42811438381000E-04 
1.46427971080000E-04 1.50136056740000E-04 1.53938013036000E-04 1.57836216313000E-04 
1.61833103076000E-04 1.65931171510000E-04 1.70132983040000E-04 1.74441163935000E-04 
1.78858406948000E-04 1.83387473001000E-04 1.88031192907000E-04 1.92792469142000E-04 
1.97674277658000E-04 2.02679669746000E-04 2.07811773938000E-04 2.13073797966000E-04 
2.18469030766000E-04 2.24000844535000E-04 2.29672696836000E-04 2.35488132762000E-04 
2.41450787149000E-04 2.47564386850000E-04 2.53832753065000E-04 2.60259803726000E-04 
2.66849555949000E-04 2.73606128544000E-04 2.80533744589000E-04 2.87636734068000E-04 
2.94919536582000E-04 3.02386704120000E-04 3.10042903904000E-04 3.17892921308000E-04 
3.25941662849000E-04 3.34194159252000E-04 3.42655568597000E-04 3.51331179538000E-04 
3.60226414616000E-04 3.69346833643000E-04 3.78698137176000E-04 3.88286170085000E-04 
3.98116925203000E-04 4.08196547071000E-04 4.18531335782000E-04 4.29127750915000E-04 
4.39992415574000E-04 4.51132120528000E-04 4.62553828456000E-04 4.74264678296000E-04 
4.86271989712000E-04 4.98583267664000E-04 5.11206207100000E-04 5.24148697770000E-04 
5.37418829151000E-04 5.51024895507000E-04 5.64975401073000E-04 5.79279065368000E-04 
5.93944828650000E-04 6.08981857496000E-04 6.24399550540000E-04 6.40207544341000E-04 
6.56415719411000E-04 6.73034206386000E-04 6.90073392362000E-04 7.07543927385000E-04 
7.25456731107000E-04 7.43822999614000E-04 7.62654212423000E-04 7.81962139653000E-04 
8.01758849388000E-04 8.22056715216000E-04 8.42868423963000E-04 8.64206983626000E-04 
8.86085731499000E-04 9.08518342511000E-04 9.31518837775000E-04 9.55101593348000E-04 
9.79281349221000E-04 1.00407321853000E-03 1.02949269699000E-03 1.05555567262000E-03 
1.08227843562000E-03 1.10967768858000E-03 1.13777055694000E-03 1.16657459964000E-03 
1.19610782015000E-03 1.22638867770000E-03 1.25743609881000E-03 1.28926948913000E-03 
1.32190874556000E-03 1.35537426870000E-03 1.38968697559000E-03 1.42486831280000E-03 
1.46094026979000E-03 1.49792539272000E-03 1.53584679850000E-03 1.57472818924000E-03 
1.61459386706000E-03 1.65546874933000E-03 1.69737838417000E-03 1.74034896646000E-03 
1.78440735423000E-03 1.82958108539000E-03 1.87589839500000E-03 1.92338823288000E-03 
1.97208028174000E-03 2.02200497568000E-03 2.07319351926000E-03 2.12567790700000E-03 
2.17949094333000E-03 2.23466626317000E-03 2.29123835288000E-03 2.34924257186000E-03 
2.40871517463000E-03 2.46969333351000E-03 2.53221516183000E-03 2.59631973777000E-03 
2.66204712877000E-03 2.72943841660000E-03 2.79853572301000E-03 2.86938223605000E-03 
2.94202223711000E-03 3.01650112856000E-03 3.09286546211000E-03 3.17116296797000E-03 
3.25144258464000E-03 3.33375448947000E-03 3.41815013009000E-03 3.50468225653000E-03 
3.59340495418000E-03 3.68437367761000E-03 3.77764528524000E-03 3.87327807486000E-03 
3.97133182007000E-03 4.07186780766000E-03 4.17494887590000E-03 4.28063945380000E-03 
4.38900560142000E-03 4.50011505112000E-03 4.61403724994000E-03 4.73084340295000E-03 
4.85060651780000E-03 4.97340145034000E-03 5.09930495140000E-03 5.22839571476000E-03 
5.36075442635000E-03 5.49646381468000E-03 5.63560870253000E-03 5.77827605999000E-03 
5.92455505880000E-03 6.07453712809000E-03 6.22831601154000E-03 6.38598782596000E-03 
6.54765112137000E-03 6.71340694258000E-03 6.88335889238000E-03 7.05761319628000E-03 
7.23627876888000E-03 7.41946728199000E-03 7.60729323439000E-03 7.79987402340000E-03 
7.99733001831000E-03 8.19978463552000E-03 8.40736441576000E-03 8.62019910316000E-03 
8.83842172633000E-03 9.06216868150000E-03 9.29157981781000E-03 9.52679852469000E-03 
9.76797182147000E-03 1.00152504493000E-02 1.02687889655000E-02 1.05287458397000E-02 
1.07952835535000E-02 1.10685687017000E-02 1.13487720963000E-02 1.16360688737000E-02 
1.19306386036000E-02 1.22326654017000E-02 1.25423380446000E-02 1.28598500878000E-02 
1.31853999866000E-02 1.35191912203000E-02 1.38614324194000E-02 1.42123374957000E-02 
1.45721257762000E-02 1.49410221405000E-02 1.53192571606000E-02 1.57070672459000E-02 
1.61046947903000E-02 1.65123883238000E-02 1.69304026683000E-02 1.73589990963000E-02 
1.77984454945000E-02 1.82490165313000E-02 1.87109938282000E-02 1.91846661360000E-02 
1.96703295154000E-02 2.01682875217000E-02 2.06788513950000E-02 2.12023402543000E-02 
2.17390812972000E-02 2.22894100042000E-02 2.28536703488000E-02 2.34322150121000E-02 
2.40254056032000E-02 2.46336128856000E-02 2.52572170087000E-02 2.58966077453000E-02 
2.65521847355000E-02 2.72243577361000E-02 2.79135468774000E-02 2.86201829247000E-02 
2.93447075488000E-02 3.00875736011000E-02 3.08492453970000E-02 3.16301990063000E-02 
3.24309225503000E-02 3.32519165073000E-02 3.40936940252000E-02 3.49567812425000E-02 
3.58417176168000E-02 3.67490562619000E-02 3.76793642943000E-02 3.86332231866000E-02 
3.96112291318000E-02 4.06139934153000E-02 4.16421427975000E-02 4.26963199052000E-02 
4.37771836335000E-02 4.48854095573000E-02 4.60216903540000E-02 4.71867362360000E-02 
4.83812753948000E-02 4.96060544565000E-02 5.08618389478000E-02 5.21494137747000E-02 
5.34695837136000E-02 5.48231739137000E-02 5.62110304127000E-02 5.76340206664000E-02 
5.90930340898000E-02 6.05889826138000E-02 6.21228012551000E-02 6.36954487001000E-02 
6.53079079047000E-02 6.69611867084000E-02 6.86563184644000E-02 7.03943626850000E-02 
7.21764057045000E-02 7.40035613579000E-02 7.58769716768000E-02 7.77978076037000E-02 
7.97672697237000E-02 8.17865890146000E-02 8.38570276167000E-02 8.59798796215000E-02 
8.81564718808000E-02 9.03881648354000E-02 9.26763533661000E-02 9.50224676652000E-02 
9.74279741306000E-02 9.98943762821000E-02 1.02423215701000E-01 1.05016072995000E-01 
1.07674568784000E-01 1.10400364714000E-01 1.13195164497000E-01 1.16060714973000E-01 
1.18998807204000E-01 1.22011277595000E-01 1.25100009036000E-01 1.28266932087000E-01 
1.31514026176000E-01 1.34843320843000E-01 1.38256897006000E-01 1.41756888261000E-01 
1.45345482216000E-01 1.49024921860000E-01 1.52797506962000E-01 1.56665595511000E-01 
1.60631605187000E-01 1.64698014876000E-01 1.68867366217000E-01 1.73142265189000E-01 
1.77525383744000E-01 1.82019461474000E-01 1.86627307323000E-01 1.91351801345000E-01 
1.96195896502000E-01 2.01162620513000E-01 2.06255077740000E-01 2.11476451135000E-01 
2.16830004228000E-01 2.22319083162000E-01 2.27947118791000E-01 2.33717628821000E-01 
2.39634220007000E-01 2.45700590412000E-01 2.51920531715000E-01 2.58297931582000E-01 
2.64836776095000E-01 2.71541152245000E-01 2.78415250486000E-01 2.85463367351000E-01 
2.92689908145000E-01 3.00099389690000E-01 3.07696443153000E-01 3.15485816940000E-01 
3.23472379664000E-01 3.31661123185000E-01 3.40057165736000E-01 3.48665755116000E-01 
3.57492271973000E-01 3.66542233169000E-01 3.75821295223000E-01 3.85335257851000E-01 
3.95090067589000E-01 4.05091821512000E-01 4.15346771041000E-01 4.25861325854000E-01 
4.36642057888000E-01 4.47695705454000E-01 4.59029177439000E-01 4.70649557634000E-01 
4.82564109155000E-01 4.94780278983000E-01 5.07305702622000E-01 5.20148208871000E-01 
5.33315824713000E-01 5.46816780337000E-01 5.60659514280000E-01 5.74852678701000E-01 
5.89405144790000E-01 6.04326008312000E-01 6.19624595292000E-01 6.35310467846000E-01 
6.51393430154000E-01 6.67883534591000E-01 6.84791088009000E-01 7.02126658180000E-01 
7.19901080399000E-01 7.38125464259000E-01 7.56811200593000E-01 7.75969968594000E-01 
7.95613743116000E-01 8.15754802158000E-01 8.36405734537000E-01 8.57579447758000E-01 
8.79289176081000E-01 9.01548488794000E-01 9.24371298690000E-01 9.47771870769000E-01 
9.71764831152000E-01 9.96365176217000E-01 1.02158828198000E+00 1.04744991371000E+00 
1.07396623577000E+00 1.10115382171000E+00 1.12902966466000E+00 1.15761118794000E+00 
1.18691625593000E+00 1.21696318525000E+00 1.24777075620000E+00 1.27935822452000E+00 
1.31174533341000E+00 1.34495232587000E+00 1.37899995734000E+00 1.41390950871000E+00 
1.44970279958000E+00 1.48640220192000E+00 1.52403065405000E+00 1.56261167499000E+00 
1.60216937911000E+00 1.64272849129000E+00 1.68431436228000E+00 1.72695298461000E+00 
1.77067100880000E+00 1.81549576004000E+00 1.86145525526000E+00 1.90857822064000E+00 
1.95689410957000E+00 2.00643312105000E+00 2.05722621858000E+00 2.10930514949000E+00 
2.16270246482000E+00 2.21745153962000E+00 2.27358659384000E+00 2.33114271373000E+00 
2.39015587373000E+00 2.45066295899000E+00 2.51270178841000E+00 2.57631113827000E+00 
2.64153076649000E+00 2.70840143745000E+00 2.77696494752000E+00 2.84726415110000E+00 
2.91934298749000E+00 2.99324650832000E+00 3.06902090568000E+00 3.14671354104000E+00 
3.22637297483000E+00 3.30804899679000E+00 3.39179265709000E+00 3.47765629824000E+00 
3.56569358782000E+00 3.65595955199000E+00 3.74851060992000E+00 3.84340460905000E+00 
3.94070086119000E+00 4.04046017969000E+00 4.14274491735000E+00 4.24761900548000E+00 
4.35514799379000E+00 4.46539909140000E+00 4.57844120883000E+00 4.69434500109000E+00 
4.81318291182000E+00 4.93502921859000E+00 5.05996007929000E+00 5.18805357979000E+00 
5.31938978269000E+00 5.45405077740000E+00 5.59212073142000E+00 5.73368594297000E+00 
5.87883489491000E+00 6.02765831006000E+00 6.18024920790000E+00 6.33670296272000E+00 
6.49711736319000E+00 6.66159267354000E+00 6.83023169620000E+00 7.00313983605000E+00 
7.18042516629000E+00 7.36219849603000E+00 7.54857343953000E+00 7.73966648718000E+00 
7.93559707837000E+00 8.13648767609000E+00 8.34246384350000E+00 8.55365432241000E+00 
8.77019111375000E+00 8.99220956006000E+00 9.21984843010000E+00 9.45325000557000E+00 
9.69256017005000E+00 9.93792850019000E+00 1.01895083592000E+01 1.04474569926000E+01 
1.07119356268000E+01 1.09831095695000E+01 1.12611483132000E+01 1.15462256413000E+01 
1.18385197362000E+01 1.21382132914000E+01 1.24454936251000E+01 1.27605527974000E+01 
1.30835877307000E+01 1.34148003322000E+01 1.37543976207000E+01 1.41025918554000E+01 
1.44596006692000E+01 1.48256472041000E+01 1.52009602512000E+01 1.55857743933000E+01 
1.59803301518000E+01 1.63848741368000E+01 1.67996592016000E+01 1.72249446003000E+01 
1.76609961502000E+01 1.81080863975000E+01 1.85664947884000E+01 1.90365078429000E+01 
1.95184193346000E+01 2.00125304737000E+01 2.05191500959000E+01 2.10385948549000E+01 
2.15711894205000E+01 2.21172666818000E+01 2.26771679548000E+01 2.32512431960000E+01 
2.38398512210000E+01 2.44433599292000E+01 2.50621465331000E+01 2.56965977944000E+01 
2.63471102659000E+01 2.70140905390000E+01 2.76979554981000E+01 2.83991325811000E+01 
2.91180600464000E+01 2.98551872471000E+01 3.06109749118000E+01 3.13858954323000E+01 
3.21804331592000E+01 3.29950847044000E+01 3.38303592517000E+01 3.46867788748000E+01 
3.55648788638000E+01 3.64652080599000E+01 3.73883291982000E+01 3.83348192593000E+01 
3.93052698303000E+01 4.03002874746000E+01 4.13204941104000E+01 4.23665274002000E+01 
4.34390411488000E+01 4.45387057122000E+01 4.56662084165000E+01 4.68222539877000E+01 
4.80075649919000E+01 4.92228822870000E+01 5.04689654859000E+01 5.17465934311000E+01 
5.30565646818000E+01 5.43996980126000E+01 5.57768329255000E+01 5.71888301748000E+01 
5.86365723045000E+01 6.01209642008000E+01 6.16429336568000E+01 6.32034319531000E+01 
6.48034344518000E+01 6.64439412066000E+01 6.81259775876000E+01 6.98505949223000E+01 
7.16188711527000E+01 7.34319115090000E+01 7.52908492004000E+01 7.71968461236000E+01 
7.91510935885000E+01 8.11548130636000E+01 8.32092569387000E+01 8.53157093081000E+01 
8.74754867731000E+01 8.96899392649000E+01 9.19604508885000E+01 9.42884407875000E+01 
9.66753640313000E+01 9.91227125247000E+01 1.01632015940000E+02 1.04204842674000E+02 
1.06842800827000E+02 1.09547539208000E+02 1.12320748368000E+02 1.15164161651000E+02 
1.18079556285000E+02 1.21068754485000E+02 1.24133624598000E+02 1.27276082267000E+02 
1.30498091630000E+02 1.33801666550000E+02 1.37188871866000E+02 1.40661824693000E+02 
1.44222695740000E+02 1.47873710666000E+02 1.51617151475000E+02 1.55455357939000E+02 
1.59390729063000E+02 1.63425724581000E+02 1.67562866497000E+02 1.71804740659000E+02 
1.76153998376000E+02 1.80613358077000E+02 1.85185607007000E+02 1.89873602969000E+02 
1.94680276114000E+02 1.99608630768000E+02 2.04661747315000E+02 
</PP_R>
    <PP_RAB>
1.22843989510000E-09 1.25953799910000E-09 1.29142335535000E-09 1.32411589324000E-09 
1.35763604667000E-09 1.39200476682000E-09 1.42724353526000E-09 1.46337437737000E-09 
1.50041987611000E-09 1.53840318611000E-09 1.57734804818000E-09 1.61727880413000E-09 
1.65822041198000E-09 1.70019846156000E-09 1.74323919053000E-09 1.78736950074000E-09 
1.83261697508000E-09 1.87900989467000E-09 1.92657725663000E-09 1.97534879208000E-09 
2.02535498483000E-09 2.07662709037000E-09 2.12919715545000E-09 2.18309803806000E-09 
2.23836342801000E-09 2.29502786797000E-09 2.35312677505000E-09 2.41269646297000E-09 
2.47377416472000E-09 2.53639805585000E-09 2.60060727833000E-09 2.66644196502000E-09 
2.73394326473000E-09 2.80315336799000E-09 2.87411553335000E-09 2.94687411448000E-09 
3.02147458785000E-09 3.09796358121000E-09 3.17638890264000E-09 3.25679957055000E-09 
3.33924584420000E-09 3.42377925521000E-09 3.51045263970000E-09 3.59932017137000E-09 
3.69043739531000E-09 3.78386126277000E-09 3.87965016668000E-09 3.97786397824000E-09 
4.07856408428000E-09 4.18181342564000E-09 4.28767653652000E-09 4.39621958481000E-09 
4.50751041346000E-09 4.62161858284000E-09 4.73861541428000E-09 4.85857403461000E-09 
4.98156942187000E-09 5.10767845219000E-09 5.23697994781000E-09 5.36955472637000E-09 
5.50548565143000E-09 5.64485768424000E-09 5.78775793686000E-09 5.93427572660000E-09 
6.08450263184000E-09 6.23853254930000E-09 6.39646175268000E-09 6.55838895288000E-09 
6.72441535967000E-09 6.89464474495000E-09 7.06918350765000E-09 7.24814074015000E-09 
7.43162829657000E-09 7.61976086259000E-09 7.81265602719000E-09 8.01043435613000E-09 
8.21321946731000E-09 8.42113810802000E-09 8.63432023418000E-09 8.85289909155000E-09 
9.07701129905000E-09 9.30679693408000E-09 9.54239962017000E-09 9.78396661664000E-09 
1.00316489108000E-08 1.02856013120000E-08 1.05459825489000E-08 1.08129553681000E-08 
1.10866866365000E-08 1.13673474449000E-08 1.16551132155000E-08 1.19501638113000E-08 
1.22526836485000E-08 1.25628618118000E-08 1.28808921727000E-08 1.32069735105000E-08 
1.35413096367000E-08 1.38841095222000E-08 1.42355874281000E-08 1.45959630396000E-08 
1.49654616031000E-08 1.53443140673000E-08 1.57327572273000E-08 1.61310338727000E-08 
1.65393929393000E-08 1.69580896650000E-08 1.73873857487000E-08 1.78275495146000E-08 
1.82788560792000E-08 1.87415875239000E-08 1.92160330709000E-08 1.97024892641000E-08 
2.02012601544000E-08 2.07126574900000E-08 2.12370009107000E-08 2.17746181483000E-08 
2.23258452311000E-08 2.28910266940000E-08 2.34705157937000E-08 2.40646747298000E-08 
2.46738748709000E-08 2.52984969871000E-08 2.59389314874000E-08 2.65955786643000E-08 
2.72688489436000E-08 2.79591631411000E-08 2.86669527258000E-08 2.93926600891000E-08 
3.01367388218000E-08 3.08996539973000E-08 3.16818824624000E-08 3.24839131354000E-08 
3.33062473115000E-08 3.41493989764000E-08 3.50138951274000E-08 3.59002761025000E-08 
3.68090959189000E-08 3.77409226185000E-08 3.86963386233000E-08 3.96759410994000E-08 
4.06803423303000E-08 4.17101700993000E-08 4.27660680825000E-08 4.38486962504000E-08 
4.49587312808000E-08 4.60968669818000E-08 4.72638147252000E-08 4.84603038914000E-08 
4.96870823251000E-08 5.09449168027000E-08 5.22345935116000E-08 5.35569185419000E-08 
5.49127183897000E-08 5.63028404741000E-08 5.77281536666000E-08 5.91895488343000E-08 
6.06879393968000E-08 6.22242618970000E-08 6.37994765865000E-08 6.54145680257000E-08 
6.70705456993000E-08 6.87684446473000E-08 7.05093261118000E-08 7.22942782004000E-08 
7.41244165663000E-08 7.60008851055000E-08 7.79248566719000E-08 7.98975338104000E-08 
8.19201495084000E-08 8.39939679666000E-08 8.61202853890000E-08 8.83004307932000E-08 
9.05357668411000E-08 9.28276906905000E-08 9.51776348683000E-08 9.75870681662000E-08 
1.00057496558000E-07 1.02590464143000E-07 1.05187554108000E-07 1.07850389718000E-07 
1.10580635332000E-07 1.13379997443000E-07 1.16250225743000E-07 1.19193114219000E-07 
1.22210502271000E-07 1.25304275865000E-07 1.28476368711000E-07 1.31728763470000E-07 
1.35063492993000E-07 1.38482641597000E-07 1.41988346360000E-07 1.45582798461000E-07 
1.49268244550000E-07 1.53046988151000E-07 1.56921391102000E-07 1.60893875031000E-07 
1.64966922869000E-07 1.69143080404000E-07 1.73424957870000E-07 1.77815231581000E-07 
1.82316645599000E-07 1.86932013456000E-07 1.91664219907000E-07 1.96516222734000E-07 
2.01491054597000E-07 2.06591824929000E-07 2.11821721876000E-07 2.17184014295000E-07 
2.22682053793000E-07 2.28319276824000E-07 2.34099206835000E-07 2.40025456470000E-07 
2.46101729830000E-07 2.52331824782000E-07 2.58719635338000E-07 2.65269154089000E-07 
2.71984474696000E-07 2.78869794454000E-07 2.85929416911000E-07 2.93167754561000E-07 
3.00589331602000E-07 3.08198786760000E-07 3.16000876192000E-07 3.24000476459000E-07 
3.32202587570000E-07 3.40612336113000E-07 3.49234978454000E-07 3.58075904025000E-07 
3.67140638692000E-07 3.76434848210000E-07 3.85964341762000E-07 3.95735075592000E-07 
4.05753156726000E-07 4.16024846792000E-07 4.26556565930000E-07 4.37354896807000E-07 
4.48426588731000E-07 4.59778561872000E-07 4.71417911580000E-07 4.83351912829000E-07 
4.95588024758000E-07 5.08133895335000E-07 5.20997366138000E-07 5.34186477255000E-07 
5.47709472309000E-07 5.61574803613000E-07 5.75791137450000E-07 5.90367359491000E-07 
6.05312580350000E-07 6.20636141277000E-07 6.36347619995000E-07 6.52456836691000E-07 
6.68973860149000E-07 6.85909014046000E-07 7.03272883405000E-07 7.21076321210000E-07 
7.39330455189000E-07 7.58046694770000E-07 7.77236738211000E-07 7.96912579915000E-07 
8.17086517923000E-07 8.37771161603000E-07 8.58979439531000E-07 8.80724607570000E-07 
9.03020257160000E-07 9.25880323806000E-07 9.49319095794000E-07 9.73351223120000E-07 
9.97991726646000E-07 1.02325600749000E-06 1.04915985665000E-06 1.07571946487000E-06 
1.10295143277000E-06 1.13087278122000E-06 1.15950096198000E-06 1.18885386858000E-06 
1.21894984755000E-06 1.24980770985000E-06 1.28144674266000E-06 1.31388672139000E-06 
1.34714792210000E-06 1.38125113411000E-06 1.41621767305000E-06 1.45206939413000E-06 
1.48882870585000E-06 1.52651858398000E-06 1.56516258592000E-06 1.60478486542000E-06 
1.64541018770000E-06 1.68706394492000E-06 1.72977217202000E-06 1.77356156303000E-06 
1.81845948776000E-06 1.86449400886000E-06 1.91169389941000E-06 1.96008866088000E-06 
2.00970854157000E-06 2.06058455552000E-06 2.11274850189000E-06 2.16623298485000E-06 
2.22107143395000E-06 2.27729812499000E-06 2.33494820150000E-06 2.39405769664000E-06 
2.45466355577000E-06 2.51680365953000E-06 2.58051684751000E-06 2.64584294252000E-06 
2.71282277549000E-06 2.78149821102000E-06 2.85191217347000E-06 2.92410867386000E-06 
2.99813283737000E-06 3.07403093150000E-06 3.15185039502000E-06 3.23163986765000E-06 
3.31344922039000E-06 3.39732958675000E-06 3.48333339470000E-06 3.57151439942000E-06 
3.66192771689000E-06 3.75462985840000E-06 3.84967876579000E-06 3.94713384773000E-06 
4.04705601681000E-06 4.14950772764000E-06 4.25455301588000E-06 4.36225753826000E-06 
4.47268861360000E-06 4.58591526492000E-06 4.70200826257000E-06 4.82104016844000E-06 
4.94308538136000E-06 5.06822018355000E-06 5.19652278834000E-06 5.32807338903000E-06 
5.46295420904000E-06 5.60124955326000E-06 5.74304586079000E-06 5.88843175893000E-06 
6.03749811861000E-06 6.19033811115000E-06 6.34704726652000E-06 6.50772353305000E-06 
6.67246733862000E-06 6.84138165350000E-06 7.01457205461000E-06 7.19214679160000E-06 
7.37421685446000E-06 7.56089604290000E-06 7.75230103750000E-06 7.94855147261000E-06 
8.14977001113000E-06 8.35608242121000E-06 8.56761765481000E-06 8.78450792835000E-06 
9.00688880531000E-06 9.23489928096000E-06 9.46868186929000E-06 9.70838269202000E-06 
9.95415156996000E-06 1.02061421167000E-05 1.04645118344000E-05 1.07294222128000E-05 
1.10010388292000E-05 1.12795314531000E-05 1.15650741513000E-05 1.18578453973000E-05 
1.21580281827000E-05 1.24658101315000E-05 1.27813836174000E-05 1.31049458841000E-05 
1.34366991687000E-05 1.37768508276000E-05 1.41256134667000E-05 1.44832050741000E-05 
1.48498491561000E-05 1.52257748773000E-05 1.56112172034000E-05 1.60064170484000E-05 
1.64116214252000E-05 1.68270835996000E-05 1.72530632489000E-05 1.76898266245000E-05 
1.81376467176000E-05 1.85968034303000E-05 1.90675837505000E-05 1.95502819312000E-05 
2.00451996746000E-05 2.05526463203000E-05 2.10729390390000E-05 2.16064030306000E-05 
2.21533717274000E-05 2.27141870027000E-05 2.32891993843000E-05 2.38787682736000E-05 
2.44832621704000E-05 2.51030589031000E-05 2.57385458648000E-05 2.63901202554000E-05 
2.70581893304000E-05 2.77431706544000E-05 2.84454923633000E-05 2.91655934308000E-05 
2.99039239437000E-05 3.06609453825000E-05 3.14371309102000E-05 3.22329656682000E-05 
3.30489470789000E-05 3.38855851574000E-05 3.47434028297000E-05 3.56229362598000E-05 
3.65247351846000E-05 3.74493632580000E-05 3.83973984024000E-05 3.93694331708000E-05 
4.03660751165000E-05 4.13879471732000E-05 4.24356880441000E-05 4.35099526015000E-05 
4.46114122956000E-05 4.57407555746000E-05 4.68986883149000E-05 4.80859342620000E-05 
4.93032354834000E-05 5.05513528319000E-05 5.18310664215000E-05 5.31431761149000E-05 
5.44885020233000E-05 5.58678850192000E-05 5.72821872619000E-05 5.87322927363000E-05 
6.02191078056000E-05 6.17435617776000E-05 6.33066074856000E-05 6.49092218841000E-05 
6.65524066592000E-05 6.82371888550000E-05 6.99646215151000E-05 7.17357843412000E-05 
7.35517843677000E-05 7.54137566538000E-05 7.73228649927000E-05 7.92803026393000E-05 
8.12872930558000E-05 8.33450906766000E-05 8.54549816922000E-05 8.76182848531000E-05 
8.98363522943000E-05 9.21105703801000E-05 9.44423605709000E-05 9.68331803114000E-05 
9.92845239417000E-05 1.01797923631000E-04 1.04374950337000E-04 1.07017214785000E-04 
1.09726368475000E-04 1.12504104718000E-04 1.15352159688000E-04 1.18272313514000E-04 
1.21266391385000E-04 1.24336264698000E-04 1.27483852225000E-04 1.30711121309000E-04 