<UPF version="2.0.1">
  <PP_INFO>
Generated using Vanderbilt code, version   7  3  6
Author: kfg        Generation date:   31    3   15
Automatically converted from original USPP format to UPF.v1.

Futher converted to UPF.v2 format.
Convert Q_IJ to Q_IJL use the same routine as 'upflib/upf_to_internal.f90' of QE.
The conversion is done by using PseudoPotentialIO.jl package.
Converted by: JYU on 2024-04-30

1        The Pseudo was generated with a Scalar-Relativistic Calculation
2.32399141017E+00    Local Potential cutoff radius
nl pn  l   occ               Rcut            Rcut US             E pseu
5P  5  1  6.00      0.00000000000      1.60000000000     -4.31620821600
5D  5  2  9.50      0.00000000000      1.60000000000     -0.67075124800
6S  6  0  0.00      0.00000000000      2.45000000000     -0.63928084400
6P  6  1  0.00      0.00000000000      1.60000000000     -0.24589354600
</PP_INFO>
  <PP_HEADER element="Pt" pseudo_type="US" relativistic="scalar" is_ultrasoft="T" is_paw="F" is_coulomb="F" has_so="F" has_wfc="F" has_gipaw="F" core_correction="T" functional="PBE" z_valence="16.0" total_psenergy="-210.005005395" wfc_cutoff="0.0" rho_cutoff="0.0" l_max="2" mesh_size="985" number_of_wfc="4" number_of_proj="6"/>
  <PP_MESH>
    <PP_R>
0.00000000000000E+00 1.96479353672000E-07 3.96260804275000E-07 5.99399847942000E-07 
8.05952913492000E-07 1.01597737810000E-06 1.22953158326000E-06 1.44667485094000E-06 
1.66746750011000E-06 1.89197086350000E-06 2.12024730459000E-06 2.35236023496000E-06 
2.58837413193000E-06 2.82835455642000E-06 3.07236817122000E-06 3.32048275944000E-06 
3.57276724341000E-06 3.82929170377000E-06 4.09012739896000E-06 4.35534678502000E-06 
4.62502353571000E-06 4.89923256297000E-06 5.17805003773000E-06 5.46155341109000E-06 
5.74982143581000E-06 6.04293418820000E-06 6.34097309034000E-06 6.64402093274000E-06 
6.95216189730000E-06 7.26548158071000E-06 7.58406701824000E-06 7.90800670790000E-06 
8.23739063500000E-06 8.57231029720000E-06 8.91285872990000E-06 9.25913053207000E-06 
9.61122189256000E-06 9.96923061677000E-06 1.03332561539000E-05 1.07033996244000E-05 
1.10797638485000E-05 1.14624533740000E-05 1.18515745061000E-05 1.22472353365000E-05 
1.26495457736000E-05 1.30586175727000E-05 1.34745643677000E-05 1.38975017020000E-05 
1.43275470608000E-05 1.47648199040000E-05 1.52094416991000E-05 1.56615359549000E-05 
1.61212282562000E-05 1.65886462982000E-05 1.70639199222000E-05 1.75471811518000E-05 
1.80385642292000E-05 1.85382056530000E-05 1.90462442157000E-05 1.95628210422000E-05 
2.00880796296000E-05 2.06221658864000E-05 2.11652281732000E-05 2.17174173443000E-05 
2.22788867890000E-05 2.28497924747000E-05 2.34302929899000E-05 2.40205495886000E-05 
2.46207262347000E-05 2.52309896479000E-05 2.58515093495000E-05 2.64824577103000E-05 
2.71240099977000E-05 2.77763444248000E-05 2.84396421998000E-05 2.91140875763000E-05 
2.97998679047000E-05 3.04971736839000E-05 3.12061986143000E-05 3.19271396520000E-05 
3.26601970630000E-05 3.34055744789000E-05 3.41634789541000E-05 3.49341210222000E-05 
3.57177147555000E-05 3.65144778240000E-05 3.73246315559000E-05 3.81484009990000E-05 
3.89860149836000E-05 3.98377061855000E-05 4.07037111911000E-05 4.15842705630000E-05 
4.24796289067000E-05 4.33900349384000E-05 4.43157415548000E-05 4.52570059023000E-05 
4.62140894495000E-05 4.71872580589000E-05 4.81767820616000E-05 4.91829363315000E-05 
5.02060003625000E-05 5.12462583457000E-05 5.23039992481000E-05 5.33795168937000E-05 
5.44731100442000E-05 5.55850824824000E-05 5.67157430968000E-05 5.78654059671000E-05 
5.90343904514000E-05 6.02230212751000E-05 6.14316286212000E-05 6.26605482216000E-05 
6.39101214509000E-05 6.51806954207000E-05 6.64726230764000E-05 6.77862632952000E-05 
6.91219809854000E-05 7.04801471885000E-05 7.18611391815000E-05 7.32653405822000E-05 
7.46931414555000E-05 7.61449384221000E-05 7.76211347681000E-05 7.91221405577000E-05 
8.06483727464000E-05 8.22002552976000E-05 8.37782192996000E-05 8.53827030860000E-05 
8.70141523570000E-05 8.86730203035000E-05 9.03597677327000E-05 9.20748631965000E-05 
9.38187831214000E-05 9.55920119406000E-05 9.73950422292000E-05 9.92283748406000E-05 
1.01092519046000E-04 1.02987992674000E-04 1.04915322258000E-04 1.06875043180000E-04 
1.08867699820000E-04 1.10893845705000E-04 1.12954043667000E-04 1.15048865997000E-04 
1.17178894604000E-04 1.19344721174000E-04 1.21546947342000E-04 1.23786184850000E-04 
1.26063055723000E-04 1.28378192441000E-04 1.30732238111000E-04 1.33125846651000E-04 
1.35559682966000E-04 1.38034423139000E-04 1.40550754613000E-04 1.43109376384000E-04 
1.45710999199000E-04 1.48356345746000E-04 1.51046150861000E-04 1.53781161730000E-04 
1.56562138095000E-04 1.59389852467000E-04 1.62265090342000E-04 1.65188650414000E-04 
1.68161344802000E-04 1.71183999275000E-04 1.74257453477000E-04 1.77382561166000E-04 
1.80560190448000E-04 1.83791224017000E-04 1.87076559403000E-04 1.90417109222000E-04 
1.93813801424000E-04 1.97267579558000E-04 2.00779403028000E-04 2.04350247364000E-04 
2.07981104489000E-04 2.11672982999000E-04 2.15426908439000E-04 2.19243923590000E-04 
2.23125088759000E-04 2.27071482072000E-04 2.31084199774000E-04 2.35164356536000E-04 
2.39313085761000E-04 2.43531539900000E-04 2.47820890772000E-04 2.52182329893000E-04 
2.56617068800000E-04 2.61126339395000E-04 2.65711394281000E-04 2.70373507115000E-04 
2.75113972957000E-04 2.79934108634000E-04 2.84835253103000E-04 2.89818767826000E-04 
2.94886037144000E-04 3.00038468664000E-04 3.05277493651000E-04 3.10604567423000E-04 
3.16021169756000E-04 3.21528805297000E-04 3.27129003982000E-04 3.32823321455000E-04 
3.38613339509000E-04 3.44500666520000E-04 3.50486937894000E-04 3.56573816522000E-04 
3.62762993243000E-04 3.69056187313000E-04 3.75455146882000E-04 3.81961649479000E-04 
3.88577502509000E-04 3.95304543750000E-04 4.02144641869000E-04 4.09099696937000E-04 
4.16171640959000E-04 4.23362438408000E-04 4.30674086774000E-04 4.38108617119000E-04 
4.45668094637000E-04 4.53354619232000E-04 4.61170326099000E-04 4.69117386317000E-04 
4.77198007455000E-04 4.85414434182000E-04 4.93768948890000E-04 5.02263872334000E-04 
5.10901564267000E-04 5.19684424104000E-04 5.28614891586000E-04 5.37695447455000E-04 
5.46928614146000E-04 5.56316956486000E-04 5.65863082410000E-04 5.75569643680000E-04 
5.85439336626000E-04 5.95474902892000E-04 6.05679130201000E-04 6.16054853124000E-04 
6.26604953876000E-04 6.37332363106000E-04 6.48240060720000E-04 6.59331076704000E-04 
6.70608491966000E-04 6.82075439196000E-04 6.93735103729000E-04 7.05590724436000E-04 
7.17645594622000E-04 7.29903062940000E-04 7.42366534319000E-04 7.55039470916000E-04 
7.67925393073000E-04 7.81027880294000E-04 7.94350572245000E-04 8.07897169758000E-04 
8.21671435865000E-04 8.35677196839000E-04 8.49918343259000E-04 8.64398831091000E-04 
8.79122682785000E-04 8.94093988396000E-04 9.09316906715000E-04 9.24795666429000E-04 
9.40534567292000E-04 9.56537981323000E-04 9.72810354018000E-04 9.89356205585000E-04 
1.00618013220000E-03 1.02328680728000E-03 1.04068098280000E-03 1.05836749058000E-03 
1.07635124365000E-03 1.09463723761000E-03 1.11323055204000E-03 1.13213635184000E-03 
1.15135988877000E-03 1.17090650281000E-03 1.19078162370000E-03 1.21099077244000E-03 
1.23153956281000E-03 1.25243370294000E-03 1.27367899689000E-03 1.29528134627000E-03 
1.31724675187000E-03 1.33958131534000E-03 1.36229124086000E-03 1.38538283689000E-03 
1.40886251791000E-03 1.43273680621000E-03 1.45701233368000E-03 1.48169584369000E-03 
1.50679419293000E-03 1.53231435331000E-03 1.55826341394000E-03 1.58464858306000E-03 
1.61147719005000E-03 1.63875668746000E-03 1.66649465313000E-03 1.69469879221000E-03 
1.72337693937000E-03 1.75253706095000E-03 1.78218725716000E-03 1.81233576437000E-03 
1.84299095735000E-03 1.87416135163000E-03 1.90585560586000E-03 1.93808252419000E-03 
1.97085105877000E-03 2.00417031215000E-03 2.03804953992000E-03 2.07249815319000E-03 
2.10752572123000E-03 2.14314197415000E-03 2.17935680559000E-03 2.21618027545000E-03 
2.25362261271000E-03 2.29169421825000E-03 2.33040566778000E-03 2.36976771472000E-03 
2.40979129323000E-03 2.45048752122000E-03 2.49186770346000E-03 2.53394333472000E-03 
2.57672610294000E-03 2.62022789249000E-03 2.66446078749000E-03 2.70943707514000E-03 
2.75516924914000E-03 2.80167001317000E-03 2.84895228440000E-03 2.89702919710000E-03 
2.94591410627000E-03 2.99562059139000E-03 3.04616246011000E-03 3.09755375218000E-03 
3.14980874328000E-03 3.20294194903000E-03 3.25696812899000E-03 3.31190229077000E-03 
3.36775969423000E-03 3.42455585567000E-03 3.48230655216000E-03 3.54102782594000E-03 
3.60073598884000E-03 3.66144762685000E-03 3.72317960472000E-03 3.78594907059000E-03 
3.84977346085000E-03 3.91467050490000E-03 3.98065823012000E-03 4.04775496684000E-03 
4.11597935349000E-03 4.18535034172000E-03 4.25588720170000E-03 4.32760952745000E-03 
4.40053724231000E-03 4.47469060443000E-03 4.55009021246000E-03 4.62675701121000E-03 
4.70471229751000E-03 4.78397772611000E-03 4.86457531569000E-03 4.94652745499000E-03 
5.02985690901000E-03 5.11458682538000E-03 5.20074074071000E-03 5.28834258720000E-03 
5.37741669927000E-03 5.46798782030000E-03 5.56008110951000E-03 5.65372214896000E-03 
5.74893695066000E-03 5.84575196378000E-03 5.94419408199000E-03 6.04429065097000E-03 
6.14606947595000E-03 6.24955882950000E-03 6.35478745931000E-03 6.46178459624000E-03 
6.57057996240000E-03 6.68120377943000E-03 6.79368677688000E-03 6.90806020074000E-03 
7.02435582216000E-03 7.14260594621000E-03 7.26284342092000E-03 7.38510164635000E-03 
7.50941458390000E-03 7.63581676576000E-03 7.76434330445000E-03 7.89502990261000E-03 
8.02791286292000E-03 8.16302909816000E-03 8.30041614149000E-03 8.44011215686000E-03 
8.58215594962000E-03 8.72658697729000E-03 8.87344536052000E-03 9.02277189427000E-03 
9.17460805908000E-03 9.32899603264000E-03 9.48597870149000E-03 9.64559967294000E-03 
9.80790328717000E-03 9.97293462956000E-03 1.01407395432000E-02 1.03113646417000E-02 
1.04848573220000E-02 1.06612657775000E-02 1.08406390119000E-02 1.10230268520000E-02 
1.12084799625000E-02 1.13970498593000E-02 1.15887889240000E-02 1.17837504188000E-02 
1.19819885008000E-02 1.21835582376000E-02 1.23885156220000E-02 1.25969175879000E-02 
1.28088220261000E-02 1.30242878003000E-02 1.32433747634000E-02 1.34661437745000E-02 
1.36926567151000E-02 1.39229765071000E-02 1.41571671296000E-02 1.43952936371000E-02 
1.46374221773000E-02 1.48836200098000E-02 1.51339555244000E-02 1.53884982603000E-02 
1.56473189256000E-02 1.59104894164000E-02 1.61780828375000E-02 1.64501735221000E-02 
1.67268370526000E-02 1.70081502817000E-02 1.72941913540000E-02 1.75850397270000E-02 
1.78807761939000E-02 1.81814829055000E-02 1.84872433935000E-02 1.87981425932000E-02 
1.91142668676000E-02 1.94357040311000E-02 1.97625433736000E-02 2.00948756862000E-02 
2.04327932854000E-02 2.07763900394000E-02 2.11257613940000E-02 2.14810043990000E-02 
2.18422177353000E-02 2.22095017423000E-02 2.25829584457000E-02 2.29626915858000E-02 
2.33488066465000E-02 2.37414108845000E-02 2.41406133590000E-02 2.45465249622000E-02 
2.49592584499000E-02 2.53789284729000E-02 2.58056516090000E-02 2.62395463952000E-02 
2.66807333604000E-02 2.71293350596000E-02 2.75854761071000E-02 2.80492832118000E-02 
2.85208852119000E-02 2.90004131110000E-02 2.94880001145000E-02 2.99837816662000E-02 
3.04878954864000E-02 3.10004816101000E-02 3.15216824255000E-02 3.20516427141000E-02 
3.25905096903000E-02 3.31384330430000E-02 3.36955649765000E-02 3.42620602534000E-02 
3.48380762371000E-02 3.54237729357000E-02 3.60193130466000E-02 3.66248620013000E-02 
3.72405880117000E-02 3.78666621170000E-02 3.85032582305000E-02 3.91505531886000E-02 
3.98087267997000E-02 4.04779618939000E-02 4.11584443742000E-02 4.18503632679000E-02 
4.25539107791000E-02 4.32692823423000E-02 4.39966766762000E-02 4.47362958397000E-02 
4.54883452872000E-02 4.62530339262000E-02 4.70305741750000E-02 4.78211820222000E-02 
4.86250770861000E-02 4.94424826760000E-02 5.02736258544000E-02 5.11187374995000E-02 
5.19780523702000E-02 5.28518091706000E-02 5.37402506164000E-02 5.46436235026000E-02 
5.55621787720000E-02 5.64961715848000E-02 5.74458613894000E-02 5.84115119946000E-02 
5.93933916429000E-02 6.03917730849000E-02 6.14069336554000E-02 6.24391553497000E-02 
6.34887249029000E-02 6.45559338688000E-02 6.56410787012000E-02 6.67444608361000E-02 
6.78663867757000E-02 6.90071681733000E-02 7.01671219200000E-02 7.13465702326000E-02 
7.25458407432000E-02 7.37652665903000E-02 7.50051865110000E-02 7.62659449355000E-02 
7.75478920827000E-02 7.88513840571000E-02 8.01767829483000E-02 8.15244569312000E-02 
8.28947803683000E-02 8.42881339139000E-02 8.57049046194000E-02 8.71454860415000E-02 
8.86102783510000E-02 9.00996884439000E-02 9.16141300549000E-02 9.31540238720000E-02 
9.47197976534000E-02 9.63118863462000E-02 9.79307322076000E-02 9.95767849275000E-02 
1.01250501753000E-01 1.02952347617000E-01 1.04682795264000E-01 1.06442325386000E-01 
1.08231426753000E-01 1.10050596349000E-01 1.11900339510000E-01 1.13781170065000E-01 
1.15693610480000E-01 1.17638192001000E-01 1.19615454801000E-01 1.21625948133000E-01 
1.23670230480000E-01 1.25748869712000E-01 1.27862443242000E-01 1.30011538186000E-01 
1.32196751530000E-01 1.34418690292000E-01 1.36677971690000E-01 1.38975223318000E-01 
1.41311083316000E-01 1.43686200549000E-01 1.46101234787000E-01 1.48556856888000E-01 
1.51053748985000E-01 1.53592604676000E-01 1.56174129215000E-01 1.58799039707000E-01 
1.61468065313000E-01 1.64181947445000E-01 1.66941439976000E-01 1.69747309451000E-01 
1.72600335295000E-01 1.75501310034000E-01 1.78451039513000E-01 1.81450343121000E-01 
1.84500054015000E-01 1.87601019359000E-01 1.90754100550000E-01 1.93960173466000E-01 
1.97220128702000E-01 2.00534871823000E-01 2.03905323613000E-01 2.07332420328000E-01 
2.10817113963000E-01 2.14360372511000E-01 2.17963180232000E-01 2.21626537931000E-01 
2.25351463229000E-01 2.29138990852000E-01 2.32990172916000E-01 2.36906079219000E-01 
2.40887797536000E-01 2.44936433926000E-01 2.49053113038000E-01 2.53238978419000E-01 
2.57495192836000E-01 2.61822938599000E-01 2.66223417887000E-01 2.70697853084000E-01 
2.75247487117000E-01 2.79873583803000E-01 2.84577428198000E-01 2.89360326957000E-01 
2.94223608691000E-01 2.99168624346000E-01 3.04196747567000E-01 3.09309375089000E-01 
3.14507927117000E-01 3.19793847729000E-01 3.25168605269000E-01 3.30633692759000E-01 
3.36190628316000E-01 3.41840955568000E-01 3.47586244086000E-01 3.53428089821000E-01 
3.59368115546000E-01 3.65407971305000E-01 3.71549334876000E-01 3.77793912232000E-01 
3.84143438018000E-01 3.90599676033000E-01 3.97164419716000E-01 4.03839492651000E-01 
4.10626749067000E-01 4.17528074357000E-01 4.24545385599000E-01 4.31680632093000E-01 
4.38935795896000E-01 4.46312892380000E-01 4.53813970784000E-01 4.61441114791000E-01 
4.69196443099000E-01 4.77082110017000E-01 4.85100306059000E-01 4.93253258552000E-01 
5.01543232259000E-01 5.09972530003000E-01 5.18543493309000E-01 5.27258503057000E-01 
5.36119980137000E-01 5.45130386129000E-01 5.54292223982000E-01 5.63608038708000E-01 
5.73080418094000E-01 5.82711993418000E-01 5.92505440179000E-01 6.02463478841000E-01 
6.12588875592000E-01 6.22884443105000E-01 6.33353041328000E-01 6.43997578271000E-01 
6.54821010819000E-01 6.65826345550000E-01 6.77016639572000E-01 6.88395001373000E-01 
6.99964591682000E-01 7.11728624348000E-01 7.23690367233000E-01 7.35853143122000E-01 
7.48220330640000E-01 7.60795365198000E-01 7.73581739941000E-01 7.86583006723000E-01 
7.99802777089000E-01 8.13244723284000E-01 8.26912579268000E-01 8.40810141755000E-01 
8.54941271269000E-01 8.69309893214000E-01 8.83919998967000E-01 8.98775646984000E-01 
9.13880963929000E-01 9.29240145822000E-01 9.44857459200000E-01 9.60737242307000E-01 
9.76883906295000E-01 9.93301936453000E-01 1.00999589345000E+00 1.02697041460000E+00 
1.04423021517000E+00 1.06178008964000E+00 1.07962491310000E+00 1.09776964257000E+00 
1.11621931835000E+00 1.13497906547000E+00 1.15405409511000E+00 1.17344970600000E+00 
1.19317128593000E+00 1.21322431324000E+00 1.23361435836000E+00 1.25434708532000E+00 
1.27542825333000E+00 1.29686371842000E+00 1.31865943502000E+00 1.34082145763000E+00 
1.36335594252000E+00 1.38626914940000E+00 1.40956744321000E+00 1.43325729584000E+00 
1.45734528796000E+00 1.48183811084000E+00 1.50674256819000E+00 1.53206557807000E+00 
1.55781417483000E+00 1.58399551101000E+00 1.61061685938000E+00 1.63768561492000E+00 
1.66520929692000E+00 1.69319555100000E+00 1.72165215132000E+00 1.75058700266000E+00 
1.78000814268000E+00 1.80992374410000E+00 1.84034211699000E+00 1.87127171111000E+00 
1.90272111821000E+00 1.93469907444000E+00 1.96721446276000E+00 2.00027631544000E+00 
2.03389381654000E+00 2.06807630447000E+00 2.10283327459000E+00 2.13817438183000E+00 
2.17410944339000E+00 2.21064844147000E+00 2.24780152603000E+00 2.28557901760000E+00 
2.32399141017000E+00 2.36304937410000E+00 2.40276375908000E+00 2.44314559714000E+00 
2.48420610570000E+00 2.52595669074000E+00 2.56840894991000E+00 2.61157467577000E+00 
2.65546585908000E+00 2.70009469211000E+00 2.74547357206000E+00 2.79161510446000E+00 
2.83853210670000E+00 2.88623761157000E+00 2.93474487092000E+00 2.98406735930000E+00 
3.03421877772000E+00 3.08521305744000E+00 3.13706436388000E+00 3.18978710050000E+00 
3.24339591285000E+00 3.29790569261000E+00 3.35333158175000E+00 3.40968897668000E+00 
3.46699353262000E+00 3.52526116785000E+00 3.58450806822000E+00 3.64475069156000E+00 
3.70600577234000E+00 3.76829032624000E+00 3.83162165494000E+00 3.89601735086000E+00 
3.96149530213000E+00 4.02807369748000E+00 4.09577103134000E+00 4.16460610896000E+00 
4.23459805164000E+00 4.30576630203000E+00 4.37813062954000E+00 4.45171113586000E+00 
4.52652826047000E+00 4.60260278640000E+00 4.67995584594000E+00 4.75860892656000E+00 
4.83858387684000E+00 4.91990291255000E+00 5.00258862285000E+00 5.08666397651000E+00 
5.17215232834000E+00 5.25907742566000E+00 5.34746341488000E+00 5.43733484824000E+00 
5.52871669060000E+00 5.62163432639000E+00 5.71611356667000E+00 5.81218065628000E+00 
5.90986228113000E+00 6.00918557565000E+00 6.11017813026000E+00 6.21286799912000E+00 
6.31728370784000E+00 6.42345426145000E+00 6.53140915247000E+00 6.64117836906000E+00 
6.75279240336000E+00 6.86628226000000E+00 6.98167946467000E+00 7.09901607288000E+00 
7.21832467890000E+00 7.33963842477000E+00 7.46299100953000E+00 7.58841669858000E+00 
7.71595033321000E+00 7.84562734023000E+00 7.97748374188000E+00 8.11155616577000E+00 
8.24788185512000E+00 8.38649867904000E+00 8.52744514311000E+00 8.67076040001000E+00 
8.81648426047000E+00 8.96465720428000E+00 9.11532039154000E+00 9.26851567409000E+00 
9.42428560718000E+00 9.58267346123000E+00 9.74372323388000E+00 9.90747966222000E+00 
1.00739882352000E+01 1.02432952063000E+01 1.04154476062000E+01 1.05904932563000E+01 
1.07684807814000E+01 1.09494596236000E+01 1.11334800561000E+01 1.13205931968000E+01 
1.15108510227000E+01 1.17043063845000E+01 1.19010130210000E+01 1.21010255742000E+01 
1.23043996045000E+01 1.25111916060000E+01 1.27214590221000E+01 1.29352602619000E+01 
1.31526547160000E+01 1.33737027731000E+01 1.35984658368000E+01 1.38270063429000E+01 
1.40593877762000E+01 1.42956746887000E+01 1.45359327171000E+01 1.47802286013000E+01 
1.50286302028000E+01 1.52812065238000E+01 1.55380277258000E+01 1.57991651498000E+01 
1.60646913356000E+01 1.63346800422000E+01 1.66092062682000E+01 1.68883462727000E+01 
1.71721775963000E+01 1.74607790829000E+01 1.77542309015000E+01 1.80526145682000E+01 
1.83560129695000E+01 1.86645103845000E+01 1.89781925090000E+01 1.92971464789000E+01 
1.96214608946000E+01 1.99512258456000E+01 2.02865329352000E+01 2.06274753066000E+01 
2.09741476681000E+01 2.13266463199000E+01 2.16850691805000E+01 2.20495158140000E+01 
2.24200874581000E+01 2.27968870517000E+01 2.31800192638000E+01 2.35695905224000E+01 
2.39657090442000E+01 2.43684848648000E+01 2.47780298690000E+01 2.51944578217000E+01 
2.56178844003000E+01 2.60484272258000E+01 2.64862058963000E+01 2.69313420197000E+01 
2.73839592479000E+01 2.78441833108000E+01 2.83121420513000E+01 2.87879654611000E+01 
2.92717857163000E+01 2.97637372145000E+01 3.02639566121000E+01 3.07725828622000E+01 
3.12897572531000E+01 3.18156234477000E+01 3.23503275233000E+01 3.28940180122000E+01 
3.34468459431000E+01 3.40089648829000E+01 3.45805309793000E+01 3.51617030044000E+01 
3.57526423985000E+01 3.63535133153000E+01 3.69644826672000E+01 3.75857201720000E+01 
3.82173983995000E+01 3.88596928200000E+01 3.95127818527000E+01 4.01768469155000E+01 
4.08520724751000E+01 4.15386460985000E+01 4.22367585052000E+01 4.29466036195000E+01 
4.36683786254000E+01 4.44022840205000E+01 4.51485236721000E+01 4.59073048739000E+01 
4.66788384032000E+01 4.74633385799000E+01 4.82610233258000E+01 4.90721142251000E+01 
4.98968365860000E+01 5.07354195034000E+01 5.15880959223000E+01 5.24551027029000E+01 
5.33366806858000E+01 5.42330747596000E+01 5.51445339284000E+01 5.60713113810000E+01 
5.70136645618000E+01 5.79718552414000E+01 5.89461495902000E+01 5.99368182517000E+01 
6.09441364180000E+01 6.19683839062000E+01 6.30098452361000E+01 6.40688097092000E+01 
6.51455714891000E+01 6.62404296833000E+01 6.73536884259000E+01 6.84856569628000E+01 
6.96366497369000E+01 7.08069864759000E+01 7.19969922807000E+01 7.32069977163000E+01 
7.44373389030000E+01 7.56883576101000E+01 7.69604013510000E+01 7.82538234793000E+01 
7.95689832871000E+01 8.09062461052000E+01 8.22659834041000E+01 8.36485728972000E+01 
8.50543986461000E+01 8.64838511670000E+01 8.79373275393000E+01 8.94152315157000E+01 
9.09179736346000E+01 9.24459713340000E+01 9.39996490676000E+01 9.55794384225000E+01 
9.71857782393000E+01 9.88191147337000E+01 1.00479901621000E+02 1.02168600241000E+02 
1.03885679688000E+02 1.05631616940000E+02 1.07406896990000E+02 1.09212012983000E+02 
1.11047466352000E+02 1.12913766957000E+02 1.14811433226000E+02 1.16740992301000E+02 
1.18702980184000E+02 1.20697941883000E+02 1.22726431568000E+02 1.24789012720000E+02 
1.26886258293000E+02 1.29018750868000E+02 1.31187082818000E+02 1.33391856470000E+02 
1.35633684277000E+02 1.37913188983000E+02 1.40231003799000E+02 1.42587772575000E+02 
1.44984149987000E+02 1.47420801709000E+02 1.49898404604000E+02 1.52417646913000E+02 
1.54979228440000E+02 
</PP_R>
    <PP_RAB>
1.94846573836000E-07 1.98121229731000E-07 2.01450920574000E-07 2.04836571302000E-07 
2.08279122395000E-07 2.11779530138000E-07 2.15338766891000E-07 2.18957821352000E-07 
2.22637698838000E-07 2.26379421561000E-07 2.30184028913000E-07 2.34052577752000E-07 
2.37986142702000E-07 2.41985816443000E-07 2.46052710023000E-07 2.50187953161000E-07 
2.54392694560000E-07 2.58668102233000E-07 2.63015363819000E-07 2.67435686920000E-07 
2.71930299432000E-07 2.76500449886000E-07 2.81147407799000E-07 2.85872464021000E-07 
2.90676931100000E-07 2.95562143640000E-07 3.00529458675000E-07 3.05580256049000E-07 
3.10715938791000E-07 3.15937933515000E-07 3.21247690807000E-07 3.26646685635000E-07 
3.32136417753000E-07 3.37718412123000E-07 3.43394219335000E-07 3.49165416038000E-07 
3.55033605379000E-07 3.61000417449000E-07 3.67067509735000E-07 3.73236567577000E-07 
3.79509304644000E-07 3.85887463403000E-07 3.92372815604000E-07 3.98967162778000E-07 
4.05672336729000E-07 4.12490200049000E-07 4.19422646632000E-07 4.26471602203000E-07 
4.33639024850000E-07 4.40926905570000E-07 4.48337268821000E-07 4.55872173085000E-07 
4.63533711440000E-07 4.71324012139000E-07 4.79245239206000E-07 4.87299593033000E-07 
4.95489310990000E-07 5.03816668053000E-07 5.12283977431000E-07 5.20893591207000E-07 
5.29647900997000E-07 5.38549338610000E-07 5.47600376724000E-07 5.56803529574000E-07 
5.66161353653000E-07 5.75676448414000E-07 5.85351457002000E-07 5.95189066980000E-07 
6.05192011082000E-07 6.15363067968000E-07 6.25705062995000E-07 6.36220869008000E-07 
6.46913407132000E-07 6.57785647583000E-07 6.68840610500000E-07 6.80081366776000E-07 
6.91511038915000E-07 7.03132801901000E-07 7.14949884075000E-07 7.26965568036000E-07 
7.39183191552000E-07 7.51606148485000E-07 7.64237889737000E-07 7.77081924206000E-07 
7.90141819761000E-07 8.03421204236000E-07 8.16923766434000E-07 8.30653257153000E-07 
8.44613490229000E-07 8.58808343595000E-07 8.73241760356000E-07 8.87917749887000E-07 
9.02840388948000E-07 9.18013822810000E-07 9.33442266416000E-07 9.49130005542000E-07 
9.65081397994000E-07 9.81300874818000E-07 9.97792941529000E-07 1.01456217936000E-06 
1.03161324655000E-06 1.04895087960000E-06 1.06657989464000E-06 1.08450518873000E-06 
1.10273174124000E-06 1.12126461521000E-06 1.14010895878000E-06 1.15927000662000E-06 
1.17875308136000E-06 1.19856359509000E-06 1.21870705086000E-06 1.23918904420000E-06 
1.26001526468000E-06 1.28119149751000E-06 1.30272362511000E-06 1.32461762876000E-06 
1.34687959026000E-06 1.36951569364000E-06 1.39253222686000E-06 1.41593558354000E-06 
1.43973226476000E-06 1.46392888087000E-06 1.48853215331000E-06 1.51354891646000E-06 
1.53898611961000E-06 1.56485082880000E-06 1.59115022883000E-06 1.61789162527000E-06 
1.64508244645000E-06 1.67273024556000E-06 1.70084270272000E-06 1.72942762711000E-06 
1.75849295919000E-06 1.78804677285000E-06 1.81809727766000E-06 1.84865282118000E-06 
1.87972189126000E-06 1.91131311840000E-06 1.94343527814000E-06 1.97609729351000E-06 
2.00930823750000E-06 2.04307733559000E-06 2.07741396829000E-06 2.11232767379000E-06 
2.14782815056000E-06 2.18392526007000E-06 2.22062902953000E-06 2.25794965467000E-06 
2.29589750256000E-06 2.33448311452000E-06 2.37371720903000E-06 2.41361068468000E-06 
2.45417462328000E-06 2.49542029282000E-06 2.53735915071000E-06 2.58000284691000E-06 
2.62336322715000E-06 2.66745233627000E-06 2.71228242152000E-06 2.75786593600000E-06 
2.80421554208000E-06 2.85134411496000E-06 2.89926474620000E-06 2.94799074740000E-06 
2.99753565388000E-06 3.04791322842000E-06 3.09913746512000E-06 3.15122259328000E-06 
3.20418308130000E-06 3.25803364078000E-06 3.31278923056000E-06 3.36846506087000E-06 
3.42507659757000E-06 3.48263956647000E-06 3.54116995764000E-06 3.60068402990000E-06 
3.66119831533000E-06 3.72272962382000E-06 3.78529504782000E-06 3.84891196700000E-06 
3.91359805315000E-06 3.97937127503000E-06 4.04624990341000E-06 4.11425251611000E-06 
4.18339800319000E-06 4.25370557217000E-06 4.32519475338000E-06 4.39788540539000E-06 
4.47179772051000E-06 4.54695223042000E-06 4.62336981186000E-06 4.70107169241000E-06 
4.78007945645000E-06 4.86041505106000E-06 4.94210079223000E-06 5.02515937094000E-06 
5.10961385957000E-06 5.19548771824000E-06 5.28280480135000E-06 5.37158936421000E-06 
5.46186606977000E-06 5.55365999546000E-06 5.64699664020000E-06 5.74190193142000E-06 
5.83840223233000E-06 5.93652434917000E-06 6.03629553873000E-06 6.13774351586000E-06 
6.24089646122000E-06 6.34578302905000E-06 6.45243235520000E-06 6.56087406515000E-06 
6.67113828231000E-06 6.78325563634000E-06 6.89725727166000E-06 7.01317485612000E-06 
7.13104058981000E-06 7.25088721396000E-06 7.37274802007000E-06 7.49665685915000E-06 
7.62264815112000E-06 7.75075689437000E-06 7.88101867548000E-06 8.01346967912000E-06 
8.14814669809000E-06 8.28508714353000E-06 8.42432905534000E-06 8.56591111273000E-06 
8.70987264495000E-06 8.85625364224000E-06 9.00509476694000E-06 9.15643736475000E-06 
9.31032347627000E-06 9.46679584861000E-06 9.62589794734000E-06 9.78767396851000E-06 
9.95216885094000E-06 1.01194282887000E-05 1.02894987438000E-05 1.04624274592000E-05 
1.06382624718000E-05 1.08170526256000E-05 1.09988475858000E-05 1.11836978522000E-05 
1.13716547733000E-05 1.15627705604000E-05 1.17570983027000E-05 1.19546919811000E-05 
1.21556064842000E-05 1.23598976228000E-05 1.25676221458000E-05 1.27788377558000E-05 
1.29936031250000E-05 1.32119779121000E-05 1.34340227779000E-05 1.36597994031000E-05 
1.38893705049000E-05 1.41227998545000E-05 1.43601522948000E-05 1.46014937587000E-05 
1.48468912869000E-05 1.50964130471000E-05 1.53501283524000E-05 1.56081076810000E-05 
1.58704226954000E-05 1.61371462626000E-05 1.64083524741000E-05 1.66841166669000E-05 
1.69645154438000E-05 1.72496266952000E-05 1.75395296205000E-05 1.78343047501000E-05 
1.81340339680000E-05 1.84388005341000E-05 1.87486891078000E-05 1.90637857712000E-05 
1.93841780533000E-05 1.97099549539000E-05 2.00412069688000E-05 2.03780261144000E-05 
2.07205059539000E-05 2.10687416228000E-05 2.14228298553000E-05 2.17828690117000E-05 
2.21489591050000E-05 2.25212018295000E-05 2.28997005881000E-05 2.32845605219000E-05 
2.36758885390000E-05 2.40737933439000E-05 2.44783854685000E-05 2.48897773020000E-05 
2.53080831226000E-05 2.57334191290000E-05 2.61659034729000E-05 2.66056562915000E-05 
2.70527997413000E-05 2.75074580316000E-05 2.79697574593000E-05 2.84398264440000E-05 
2.89177955634000E-05 2.94037975897000E-05 2.98979675266000E-05 3.04004426467000E-05 
3.09113625297000E-05 3.14308691011000E-05 3.19591066715000E-05 3.24962219771000E-05 
3.30423642199000E-05 3.35976851097000E-05 3.41623389059000E-05 3.47364824603000E-05 
3.53202752610000E-05 3.59138794764000E-05 3.65174600003000E-05 3.71311844980000E-05 
3.77552234523000E-05 3.83897502114000E-05 3.90349410369000E-05 3.96909751526000E-05 
4.03580347944000E-05 4.10363052608000E-05 4.17259749649000E-05 4.24272354858000E-05 
4.31402816228000E-05 4.38653114487000E-05 4.46025263654000E-05 4.53521311596000E-05 
4.61143340595000E-05 4.68893467933000E-05 4.76773846471000E-05 4.84786665254000E-05 
4.92934150117000E-05 5.01218564303000E-05 5.09642209090000E-05 5.18207424435000E-05 
5.26916589619000E-05 5.35772123910000E-05 5.44776487236000E-05 5.53932180867000E-05 
5.63241748111000E-05 5.72707775017000E-05 5.82332891098000E-05 5.92119770061000E-05 
6.02071130545000E-05 6.12189736881000E-05 6.22478399858000E-05 6.32939977504000E-05 
6.43577375881000E-05 6.54393549889000E-05 6.65391504091000E-05 6.76574293545000E-05 
6.87945024653000E-05 6.99506856025000E-05 7.11262999355000E-05 7.23216720314000E-05 
7.35371339456000E-05 7.47730233143000E-05 7.60296834482000E-05 7.73074634273000E-05 
7.86067181990000E-05 7.99278086757000E-05 8.12711018353000E-05 8.26369708236000E-05 