<UPF version="2.0.1">
  <PP_INFO>
Generated using Vanderbilt code, version   7  3  6
Author: kfg        Generation date:   31    3   15
Automatically converted from original USPP format to UPF.v1.

Futher converted to UPF.v2 format.
Convert Q_IJ to Q_IJL use the same routine as 'upflib/upf_to_internal.f90' of QE.
The conversion is done by using PseudoPotentialIO.jl package.
Converted by: JYU on 2024-04-30

1        The Pseudo was generated with a Scalar-Relativistic Calculation
2.10000000000E+00    Local Potential cutoff radius
nl pn  l   occ               Rcut            Rcut US             E pseu
4P  4  1  6.00      0.00000000000      1.55000000000     -4.10840811100
4D  4  2  7.50      0.00000000000      1.60000000000     -0.81088072300
5S  5  0  1.00      0.00000000000      2.50000000000     -0.58892815300
5P  5  1  0.00      0.00000000000      1.55000000000     -0.27355217800
</PP_INFO>
  <PP_HEADER element="Rh" pseudo_type="US" relativistic="scalar" is_ultrasoft="T" is_paw="F" is_coulomb="F" has_so="F" has_wfc="F" has_gipaw="F" core_correction="T" functional="PBE" z_valence="15.0" total_psenergy="-170.358683892" wfc_cutoff="0.0" rho_cutoff="0.0" l_max="2" mesh_size="969" number_of_wfc="4" number_of_proj="7"/>
  <PP_MESH>
    <PP_R>
0.00000000000000E+00 3.40564213031000E-07 6.86852060743000E-07 1.03895973643000E-06 
1.39698505005000E-06 1.76102745538000E-06 2.13118807764000E-06 2.50756974162000E-06 
2.89027700020000E-06 3.27941616340000E-06 3.67509532795000E-06 4.07742440726000E-06 
4.48651516201000E-06 4.90248123113000E-06 5.32543816345000E-06 5.75550344970000E-06 
6.19279655525000E-06 6.63743895320000E-06 7.08955415820000E-06 7.54926776070000E-06 
8.01670746190000E-06 8.49200310914000E-06 8.97528673206000E-06 9.46669257923000E-06 
9.96635715541000E-06 1.04744192595000E-05 1.09910200233000E-05 1.15163029501000E-05 
1.20504139553000E-05 1.25935014066000E-05 1.31457161650000E-05 1.37072116270000E-05 
1.42781437673000E-05 1.48586711818000E-05 1.54489551318000E-05 1.60491595889000E-05 
1.66594512804000E-05 1.72799997357000E-05 1.79109773334000E-05 1.85525593490000E-05 
1.92049240040000E-05 1.98682525149000E-05 2.05427291439000E-05 2.12285412499000E-05 
2.19258793408000E-05 2.26349371261000E-05 2.33559115707000E-05 2.40890029501000E-05 
2.48344149054000E-05 2.55923545002000E-05 2.63630322784000E-05 2.71466623218000E-05 
2.79434623107000E-05 2.87536535835000E-05 2.95774611985000E-05 3.04151139964000E-05 
3.12668446640000E-05 3.21328897986000E-05 3.30134899738000E-05 3.39088898066000E-05 
3.48193380247000E-05 3.57450875364000E-05 3.66863955003000E-05 3.76435233968000E-05 
3.86167371009000E-05 3.96063069561000E-05 4.06125078492000E-05 4.16356192870000E-05 
4.26759254736000E-05 4.37337153896000E-05 4.48092828725000E-05 4.59029266979000E-05 
4.70149506627000E-05 4.81456636697000E-05 4.92953798130000E-05 5.04644184657000E-05 
5.16531043682000E-05 5.28617677187000E-05 5.40907442648000E-05 5.53403753968000E-05 
5.66110082424000E-05 5.79029957635000E-05 5.92166968537000E-05 6.05524764384000E-05 
6.19107055762000E-05 6.32917615616000E-05 6.46960280301000E-05 6.61238950649000E-05 
6.75757593048000E-05 6.90520240549000E-05 7.05530993980000E-05 7.20794023093000E-05 
7.36313567716000E-05 7.52093938933000E-05 7.68139520282000E-05 7.84454768973000E-05 
8.01044217124000E-05 8.17912473021000E-05 8.35064222400000E-05 8.52504229746000E-05 
8.70237339617000E-05 8.88268477991000E-05 9.06602653635000E-05 9.25244959491000E-05 
9.44200574099000E-05 9.63474763028000E-05 9.83072880345000E-05 1.00300037010000E-04 
1.02326276782000E-04 1.04386570210000E-04 1.06481489610000E-04 1.08611616918000E-04 
1.10777543848000E-04 1.12979872063000E-04 1.15219213332000E-04 1.17496189712000E-04 
1.19811433708000E-04 1.22165588460000E-04 1.24559307915000E-04 1.26993257009000E-04 
1.29468111856000E-04 1.31984559932000E-04 1.34543300265000E-04 1.37145043633000E-04 
1.39790512760000E-04 1.42480442516000E-04 1.45215580119000E-04 1.47996685349000E-04 
1.50824530752000E-04 1.53699901859000E-04 1.56623597403000E-04 1.59596429541000E-04 
1.62619224077000E-04 1.65692820697000E-04 1.68818073197000E-04 1.71995849724000E-04 
1.75227033012000E-04 1.78512520635000E-04 1.81853225248000E-04 1.85250074846000E-04 
1.88704013021000E-04 1.92215999222000E-04 1.95787009023000E-04 1.99418034395000E-04 
2.03110083980000E-04 2.06864183369000E-04 2.10681375393000E-04 2.14562720407000E-04 
2.18509296587000E-04 2.22522200231000E-04 2.26602546060000E-04 2.30751467528000E-04 
2.34970117142000E-04 2.39259666774000E-04 2.43621307995000E-04 2.48056252400000E-04 
2.52565731945000E-04 2.57150999293000E-04 2.61813328159000E-04 2.66554013665000E-04 
2.71374372697000E-04 2.76275744276000E-04 2.81259489925000E-04 2.86326994050000E-04 
2.91479664324000E-04 2.96718932077000E-04 3.02046252694000E-04 3.07463106022000E-04 
3.12970996776000E-04 3.18571454962000E-04 3.24266036299000E-04 3.30056322651000E-04 
3.35943922469000E-04 3.41930471234000E-04 3.48017631916000E-04 3.54207095431000E-04 
3.60500581115000E-04 3.66899837199000E-04 3.73406641294000E-04 3.80022800889000E-04 
3.86750153848000E-04 3.93590568924000E-04 4.00545946275000E-04 4.07618217996000E-04 
4.14809348652000E-04 4.22121335826000E-04 4.29556210672000E-04 4.37116038481000E-04 
4.44802919254000E-04 4.52618988285000E-04 4.60566416754000E-04 4.68647412332000E-04 
4.76864219791000E-04 4.85219121632000E-04 4.93714438712000E-04 5.02352530899000E-04 
5.11135797717000E-04 5.20066679018000E-04 5.29147655662000E-04 5.38381250199000E-04 
5.47770027577000E-04 5.57316595849000E-04 5.67023606902000E-04 5.76893757189000E-04 
5.86929788483000E-04 5.97134488635000E-04 6.07510692349000E-04 6.18061281971000E-04 
6.28789188288000E-04 6.39697391342000E-04 6.50788921261000E-04 6.62066859097000E-04 
6.73534337682000E-04 6.85194542500000E-04 6.97050712573000E-04 7.09106141358000E-04 
7.21364177662000E-04 7.33828226573000E-04 7.46501750409000E-04 7.59388269673000E-04 
7.72491364038000E-04 7.85814673335000E-04 7.99361898571000E-04 8.13136802949000E-04 
8.27143212922000E-04 8.41385019248000E-04 8.55866178077000E-04 8.70590712045000E-04 
8.85562711396000E-04 9.00786335114000E-04 9.16265812083000E-04 9.32005442255000E-04 
9.48009597853000E-04 9.64282724576000E-04 9.80829342845000E-04 9.97654049046000E-04 
1.01476151682000E-03 1.03215649835000E-03 1.04984382568000E-03 1.06782841208000E-03 
1.08611525338000E-03 1.10470942938000E-03 1.12361610525000E-03 1.14284053295000E-03 
1.16238805274000E-03 1.18226409461000E-03 1.20247417980000E-03 1.22302392236000E-03 
1.24391903068000E-03 1.26516530910000E-03 1.28676865949000E-03 1.30873508292000E-03 
1.33107068133000E-03 1.35378165918000E-03 1.37687432522000E-03 1.40035509425000E-03 
1.42423048883000E-03 1.44850714119000E-03 1.47319179498000E-03 1.49829130722000E-03 
1.52381265016000E-03 1.54976291322000E-03 1.57614930497000E-03 1.60297915514000E-03 
1.63025991664000E-03 1.65799916763000E-03 1.68620461363000E-03 1.71488408968000E-03 
1.74404556248000E-03 1.77369713262000E-03 1.80384703685000E-03 1.83450365033000E-03 
1.86567548899000E-03 1.89737121186000E-03 1.92959962353000E-03 1.96236967653000E-03 
1.99569047386000E-03 2.02957127153000E-03 2.06402148107000E-03 2.09905067222000E-03 
2.13466857553000E-03 2.17088508509000E-03 2.20771026127000E-03 2.24515433353000E-03 
2.28322770324000E-03 2.32194094658000E-03 2.36130481748000E-03 2.40133025060000E-03 
2.44202836437000E-03 2.48341046409000E-03 2.52548804505000E-03 2.56827279573000E-03 
2.61177660107000E-03 2.65601154574000E-03 2.70098991750000E-03 2.74672421063000E-03 
2.79322712941000E-03 2.84051159161000E-03 2.88859073209000E-03 2.93747790650000E-03 
2.98718669491000E-03 3.03773090565000E-03 3.08912457908000E-03 3.14138199158000E-03 
3.19451765941000E-03 3.24854634283000E-03 3.30348305016000E-03 3.35934304194000E-03 
3.41614183519000E-03 3.47389520773000E-03 3.53261920254000E-03 3.59233013220000E-03 
3.65304458347000E-03 3.71477942187000E-03 3.77755179635000E-03 3.84137914411000E-03 
3.90627919536000E-03 3.97226997831000E-03 4.03936982416000E-03 4.10759737219000E-03 
4.17697157493000E-03 4.24751170345000E-03 4.31923735267000E-03 4.39216844685000E-03 
4.46632524509000E-03 4.54172834699000E-03 4.61839869832000E-03 4.69635759692000E-03 
4.77562669851000E-03 4.85622802282000E-03 4.93818395962000E-03 5.02151727497000E-03 
5.10625111754000E-03 5.19240902507000E-03 5.28001493086000E-03 5.36909317045000E-03 
5.45966848836000E-03 5.55176604498000E-03 5.64541142358000E-03 5.74063063734000E-03 
5.83745013667000E-03 5.93589681649000E-03 6.03599802374000E-03 6.13778156495000E-03 
6.24127571399000E-03 6.34650921988000E-03 6.45351131484000E-03 6.56231172236000E-03 
6.67294066548000E-03 6.78542887517000E-03 6.89980759887000E-03 7.01610860919000E-03 
7.13436421271000E-03 7.25460725898000E-03 7.37687114961000E-03 7.50118984758000E-03 
7.62759788666000E-03 7.75613038101000E-03 7.88682303493000E-03 8.01971215276000E-03 
8.15483464902000E-03 8.29222805859000E-03 8.43193054719000E-03 8.57398092198000E-03 
8.71841864229000E-03 8.86528383065000E-03 9.01461728389000E-03 9.16646048448000E-03 
9.32085561207000E-03 9.47784555518000E-03 9.63747392314000E-03 9.79978505820000E-03 
9.96482404781000E-03 1.01326367372000E-02 1.03032697421000E-02 1.04767704617000E-02 
1.06531870916000E-02 1.08325686378000E-02 1.10149649295000E-02 1.12004266335000E-02 
1.13890052682000E-02 1.15807532177000E-02 1.17757237466000E-02 1.19739710146000E-02 
1.21755500917000E-02 1.23805169734000E-02 1.25889285963000E-02 1.28008428537000E-02 
1.30163186121000E-02 1.32354157273000E-02 1.34581950610000E-02 1.36847184979000E-02 
1.39150489624000E-02 1.41492504368000E-02 1.43873879786000E-02 1.46295277386000E-02 
1.48757369793000E-02 1.51260840940000E-02 1.53806386249000E-02 1.56394712834000E-02 
1.59026539691000E-02 1.61702597899000E-02 1.64423630826000E-02 1.67190394331000E-02 
1.70003656978000E-02 1.72864200246000E-02 1.75772818749000E-02 1.78730320456000E-02 
1.81737526914000E-02 1.84795273477000E-02 1.87904409539000E-02 1.91065798769000E-02 
1.94280319351000E-02 1.97548864227000E-02 2.00872341349000E-02 2.04251673925000E-02 
2.07687800681000E-02 2.11181676119000E-02 2.14734270781000E-02 2.18346571524000E-02 
2.22019581785000E-02 2.25754321871000E-02 2.29551829233000E-02 2.33413158758000E-02 
2.37339383063000E-02 2.41331592790000E-02 2.45390896913000E-02 2.49518423043000E-02 
2.53715317740000E-02 2.57982746836000E-02 2.62321895756000E-02 2.66733969845000E-02 
2.71220194710000E-02 2.75781816552000E-02 2.80420102517000E-02 2.85136341049000E-02 
2.89931842244000E-02 2.94807938217000E-02 2.99765983469000E-02 3.04807355268000E-02 
3.09933454027000E-02 3.15145703695000E-02 3.20445552153000E-02 3.25834471616000E-02 
3.31313959039000E-02 3.36885536538000E-02 3.42550751810000E-02 3.48311178561000E-02 
3.54168416947000E-02 3.60124094017000E-02 3.66179864163000E-02 3.72337409583000E-02 
3.78598440746000E-02 3.84964696867000E-02 3.91437946392000E-02 3.98019987487000E-02 
4.04712648539000E-02 4.11517788664000E-02 4.18437298222000E-02 4.25473099344000E-02 
4.32627146464000E-02 4.39901426864000E-02 4.47297961223000E-02 4.54818804183000E-02 
4.62466044914000E-02 4.70241807699000E-02 4.78148252523000E-02 4.86187575671000E-02 
4.94362010339000E-02 5.02673827258000E-02 5.11125335317000E-02 5.19718882213000E-02 
5.28456855098000E-02 5.37341681242000E-02 5.46375828709000E-02 5.55561807044000E-02 
5.64902167965000E-02 5.74399506078000E-02 5.84056459593000E-02 5.93875711059000E-02 
6.03859988110000E-02 6.14012064219000E-02 6.24334759474000E-02 6.34830941355000E-02 
6.45503525537000E-02 6.56355476695000E-02 6.67389809329000E-02 6.78609588603000E-02 
6.90017931195000E-02 7.01618006161000E-02 7.13413035820000E-02 7.25406296644000E-02 
7.37601120171000E-02 7.50000893932000E-02 7.62609062388000E-02 7.75429127888000E-02 
7.88464651645000E-02 8.01719254720000E-02 8.15196619034000E-02 8.28900488386000E-02 
8.42834669493000E-02 8.57003033051000E-02 8.71409514809000E-02 8.86058116659000E-02 
9.00952907751000E-02 9.16098025623000E-02 9.31497677350000E-02 9.47156140712000E-02 
9.63077765382000E-02 9.79266974137000E-02 9.95728264083000E-02 1.01246620791000E-01 
1.02948545514000E-01 1.04679073347000E-01 1.06438685003000E-01 1.08227869273000E-01 
1.10047123165000E-01 1.11896952039000E-01 1.13777869749000E-01 1.15690398783000E-01 
1.17635070411000E-01 1.19612424834000E-01 1.21623011328000E-01 1.23667388403000E-01 
1.25746123955000E-01 1.27859795423000E-01 1.30008989952000E-01 1.32194304555000E-01 
1.34416346277000E-01 1.36675732366000E-01 1.38973090444000E-01 1.41309058681000E-01 
1.43684285972000E-01 1.46099432117000E-01 1.48555168007000E-01 1.51052175805000E-01 
1.53591149142000E-01 1.56172793303000E-01 1.58797825429000E-01 1.61466974712000E-01 
1.64180982599000E-01 1.66940603000000E-01 1.69746602493000E-01 1.72599760541000E-01 
1.75500869705000E-01 1.78450735869000E-01 1.81450178458000E-01 1.84500030670000E-01 
1.87601139706000E-01 1.90754367005000E-01 1.93960588483000E-01 1.97220694780000E-01 
2.00535591499000E-01 2.03906199468000E-01 2.07333454989000E-01 2.10818310098000E-01 
2.14361732833000E-01 2.17964707501000E-01 2.21628234952000E-01 2.25353332856000E-01 
2.29141035986000E-01 2.32992396506000E-01 2.36908484263000E-01 2.40890387085000E-01 
2.44939211082000E-01 2.49056080952000E-01 2.53242140297000E-01 2.57498551939000E-01 
2.61826498241000E-01 2.66227181439000E-01 2.70701823972000E-01 2.75251668826000E-01 
2.79877979876000E-01 2.84582042238000E-01 2.89365162626000E-01 2.94228669715000E-01 
2.99173914512000E-01 3.04202270726000E-01 3.09315135157000E-01 3.14513928076000E-01 
3.19800093626000E-01 3.25175100222000E-01 3.30640440953000E-01 3.36197634007000E-01 
3.41848223084000E-01 3.47593777827000E-01 3.53435894262000E-01 3.59376195235000E-01 
3.65416330870000E-01 3.71557979019000E-01 3.77802845736000E-01 3.84152665747000E-01 
3.90609202930000E-01 3.97174250811000E-01 4.03849633055000E-01 4.10637203979000E-01 
4.17538849062000E-01 4.24556485473000E-01 4.31692062599000E-01 4.38947562593000E-01 
4.46325000916000E-01 4.53826426905000E-01 4.61453924338000E-01 4.69209612013000E-01 
4.77095644337000E-01 4.85114211926000E-01 4.93267542211000E-01 5.01557900058000E-01 
5.09987588398000E-01 5.18558948866000E-01 5.27274362450000E-01 5.36136250154000E-01 
5.45147073670000E-01 5.54309336063000E-01 5.63625582466000E-01 5.73098400783000E-01 
5.82730422414000E-01 5.92524322984000E-01 6.02482823082000E-01 6.12608689023000E-01 
6.22904733612000E-01 6.33373816929000E-01 6.44018847118000E-01 6.54842781202000E-01 
6.65848625898000E-01 6.77039438457000E-01 6.88418327508000E-01 6.99988453928000E-01 
7.11753031716000E-01 7.23715328885000E-01 7.35878668372000E-01 7.48246428961000E-01 
7.60822046220000E-01 7.73609013459000E-01 7.86610882693000E-01 7.99831265637000E-01 
8.13273834705000E-01 8.26942324029000E-01 8.40840530502000E-01 8.54972314824000E-01 
8.69341602582000E-01 8.83952385338000E-01 8.98808721736000E-01 9.13914738631000E-01 
9.29274632238000E-01 9.44892669291000E-01 9.60773188235000E-01 9.76920600427000E-01 
9.93339391363000E-01 1.01003412192000E+00 1.02700942964000E+00 1.04427002999000E+00 
1.06182071769000E+00 1.07966636805000E+00 1.09781193830000E+00 1.11626246900000E+00 
1.13502308542000E+00 1.15409899895000E+00 1.17349550859000E+00 1.19321800238000E+00 
1.21327195892000E+00 1.23366294887000E+00 1.25439663654000E+00 1.27547878141000E+00 
1.29691523978000E+00 1.31871196634000E+00 1.34087501590000E+00 1.36341054499000E+00 
1.38632481362000E+00 1.40962418703000E+00 1.43331513740000E+00 1.45740424571000E+00 
1.48189820353000E+00 1.50680381490000E+00 1.53212799821000E+00 1.55787778810000E+00 
1.58406033748000E+00 1.61068291943000E+00 1.63775292928000E+00 1.66527788667000E+00 
1.69326543758000E+00 1.72172335652000E+00 1.75065954865000E+00 1.78008205198000E+00 
1.80999903962000E+00 1.84041882205000E+00 1.87134984938000E+00 1.90280071378000E+00 
1.93478015180000E+00 1.96729704682000E+00 2.00036043152000E+00 2.03397949039000E+00 
2.06816356227000E+00 2.10292214295000E+00 2.13826488783000E+00 2.17420161455000E+00 
2.21074230578000E+00 2.24789711193000E+00 2.28567635403000E+00 2.32409052656000E+00 
2.36315030036000E+00 2.40286652562000E+00 2.44325023489000E+00 2.48431264612000E+00 
2.52606516580000E+00 2.56851939212000E+00 2.61168711819000E+00 2.65558033533000E+00 
2.70021123637000E+00 2.74559221909000E+00 2.79173588959000E+00 2.83865506587000E+00 
2.88636278132000E+00 2.93487228840000E+00 2.98419706229000E+00 3.03435080462000E+00 
3.08534744731000E+00 3.13720115643000E+00 3.18992633612000E+00 3.24353763260000E+00 
3.29804993824000E+00 3.35347839569000E+00 3.40983840212000E+00 3.46714561343000E+00 
3.52541594867000E+00 3.58466559442000E+00 3.64491100929000E+00 3.70616892850000E+00 
3.76845636855000E+00 3.83179063189000E+00 3.89618931178000E+00 3.96167029717000E+00 
4.02825177763000E+00 4.09595224844000E+00 4.16479051574000E+00 4.23478570170000E+00 
4.30595724989000E+00 4.37832493062000E+00 4.45190884651000E+00 4.52672943800000E+00 
4.60280748906000E+00 4.68016413299000E+00 4.75882085824000E+00 4.83879951440000E+00 
4.92012231827000E+00 5.00281186006000E+00 5.08689110960000E+00 5.17238342279000E+00 
5.25931254805000E+00 5.34770263290000E+00 5.43757823072000E+00 5.52896430753000E+00 
5.62188624894000E+00 5.71636986720000E+00 5.81244140836000E+00 5.91012755958000E+00 
6.00945545654000E+00 6.11045269095000E+00 6.21314731824000E+00 6.31756786538000E+00 
6.42374333872000E+00 6.53170323216000E+00 6.64147753522000E+00 6.75309674150000E+00 
6.86659185703000E+00 6.98199440897000E+00 7.09933645433000E+00 7.21865058887000E+00 
7.33996995617000E+00 7.46332825684000E+00 7.58875975787000E+00 7.71629930215000E+00 
7.84598231815000E+00 7.97784482975000E+00 8.11192346630000E+00 8.24825547270000E+00 
8.38687871985000E+00 8.52783171509000E+00 8.67115361294000E+00 8.81688422595000E+00 
8.96506403579000E+00 9.11573420448000E+00 9.26893658580000E+00 9.42471373695000E+00 
9.58310893037000E+00 9.74416616575000E+00 9.90793018223000E+00 1.00744464709000E+01 
1.02437612873000E+01 1.04159216645000E+01 1.05909754258000E+01 1.07689711985000E+01 
1.09499584269000E+01 1.11339873865000E+01 1.13211091976000E+01 1.15113758397000E+01 
1.17048401658000E+01 1.19015559173000E+01 1.21015777388000E+01 1.23049611930000E+01 
1.25117627768000E+01 1.27220399363000E+01 1.29358510832000E+01 1.31532556109000E+01 
1.33743139109000E+01 1.35990873897000E+01 1.38276384859000E+01 1.40600306873000E+01 
1.42963285489000E+01 1.45365977103000E+01 1.47809049147000E+01 1.50293180267000E+01 
1.52819060515000E+01 1.55387391541000E+01 1.57998886787000E+01 1.60654271684000E+01 
1.63354283858000E+01 1.66099673328000E+01 1.68891202721000E+01 1.71729647478000E+01 
1.74615796077000E+01 1.77550450242000E+01 1.80534425175000E+01 1.83568549776000E+01 
1.86653666877000E+01 1.89790633476000E+01 1.92980320973000E+01 1.96223615411000E+01 
1.99521417726000E+01 2.02874643997000E+01 2.06284225697000E+01 2.09751109953000E+01 
2.13276259812000E+01 2.16860654503000E+01 2.20505289716000E+01 2.24211177873000E+01 
2.27979348410000E+01 2.31810848066000E+01 2.35706741172000E+01 2.39668109944000E+01 
2.43696054788000E+01 2.47791694604000E+01 2.51956167096000E+01 2.56190629089000E+01 
2.60496256849000E+01 2.64874246412000E+01 2.69325813913000E+01 2.73852195929000E+01 
2.78454649817000E+01 2.83134454065000E+01 2.87892908649000E+01 2.92731335393000E+01 
2.97651078336000E+01 3.02653504104000E+01 3.07740002292000E+01 3.12911985849000E+01 
3.18170891471000E+01 3.23518179998000E+01 3.28955336823000E+01 3.34483872301000E+01 
3.40105322174000E+01 3.45821247990000E+01 3.51633237544000E+01 3.57542905315000E+01 
3.63551892914000E+01 3.69661869545000E+01 3.75874532461000E+01 3.82191607443000E+01 
3.88614849274000E+01 3.95146042230000E+01 4.01787000572000E+01 4.08539569054000E+01 
4.15405623433000E+01 4.22387070991000E+01 4.29485851062000E+01 4.36703935577000E+01 
4.44043329605000E+01 4.51506071914000E+01 4.59094235535000E+01 4.66809928342000E+01 
4.74655293631000E+01 4.82632510721000E+01 4.90743795557000E+01 4.98991401325000E+01 
5.07377619082000E+01 5.15904778384000E+01 5.24575247943000E+01 5.33391436278000E+01 
5.42355792387000E+01 5.51470806427000E+01 5.60739010403000E+01 5.70162978878000E+01 
5.79745329681000E+01 5.89488724637000E+01 5.99395870308000E+01 6.09469518742000E+01 
6.19712468240000E+01 6.30127564132000E+01 6.40717699566000E+01 6.51485816314000E+01 
6.62434905591000E+01 6.73568008879000E+01 6.84888218780000E+01 6.96398679868000E+01 
7.08102589568000E+01 7.20003199041000E+01 7.32103814089000E+01 7.44407796072000E+01 
7.56918562840000E+01 7.69639589688000E+01 7.82574410317000E+01 7.95726617814000E+01 
8.09099865656000E+01 8.22697868719000E+01 8.36524404314000E+01 8.50583313235000E+01 
8.64878500824000E+01 8.79413938058000E+01 8.94193662653000E+01 9.09221780183000E+01 
9.24502465221000E+01 9.40039962500000E+01 9.55838588091000E+01 9.71902730604000E+01 
9.88236852404000E+01 1.00484549085000E+02 1.02173325956000E+02 1.03890484970000E+02 
1.05636503125000E+02 1.07411865437000E+02 1.09217065076000E+02 1.11052603496000E+02 
1.12918990581000E+02 1.14816744784000E+02 1.16746393272000E+02 1.18708472069000E+02 
1.20703526211000E+02 1.22732109892000E+02 1.24794786620000E+02 1.26892129375000E+02 
1.29024720765000E+02 1.31193153191000E+02 1.33398029008000E+02 1.35639960697000E+02 
1.37919571031000E+02 1.40237493249000E+02 1.42594371234000E+02 1.44990859688000E+02 
1.47427624320000E+02 1.49905342023000E+02 1.52424701068000E+02 1.54986401294000E+02 
1.57591154300000E+02 1.60239683646000E+02 1.62932725051000E+02 1.65671026599000E+02 
1.68455348948000E+02 1.71286465538000E+02 1.74165162809000E+02 1.77092240418000E+02 
1.80068511460000E+02 1.83094802696000E+02 1.86171954783000E+02 1.89300822504000E+02 
1.92482275010000E+02 1.95717196058000E+02 1.99006484258000E+02 2.02351053322000E+02 
2.05751832318000E+02 
</PP_R>
    <PP_RAB>
3.37734061316000E-07 3.43410131534000E-07 3.49181595662000E-07 3.55050056924000E-07 
3.61017145484000E-07 3.67084518906000E-07 3.73253862611000E-07 3.79526890344000E-07 
3.85905344653000E-07 3.92390997373000E-07 3.98985650116000E-07 4.05691134771000E-07 
4.12509314017000E-07 4.19442081835000E-07 4.26491364041000E-07 4.33659118812000E-07 
4.40947337237000E-07 4.48358043870000E-07 4.55893297286000E-07 4.63555190662000E-07 
4.71345852348000E-07 4.79267446469000E-07 4.87322173518000E-07 4.95512270970000E-07 
5.03840013907000E-07 5.12307715642000E-07 5.20917728371000E-07 5.29672443818000E-07 
5.38574293905000E-07 5.47625751426000E-07 5.56829330732000E-07 5.66187588433000E-07 
5.75703124105000E-07 5.85378581013000E-07 5.95216646847000E-07 6.05220054465000E-07 
6.15391582657000E-07 6.25734056912000E-07 6.36250350206000E-07 6.46943383800000E-07 
6.57816128050000E-07 6.68871603231000E-07 6.80112880381000E-07 6.91543082149000E-07 
7.03165383664000E-07 7.14983013418000E-07 7.26999254162000E-07 7.39217443818000E-07 
7.51640976406000E-07 7.64273302987000E-07 7.77117932623000E-07 7.90178433347000E-07 
8.03458433162000E-07 8.16961621042000E-07 8.30691747958000E-07 8.44652627923000E-07 
8.58848139050000E-07 8.73282224626000E-07 8.87958894214000E-07 9.02882224759000E-07 
9.18056361728000E-07 9.33485520257000E-07 9.49173986321000E-07 9.65126117929000E-07 
9.81346346331000E-07 9.97839177251000E-07 1.01460919214000E-06 1.03166104943000E-06 
1.04899948588000E-06 1.06662931781000E-06 1.08455544253000E-06 1.10278283961000E-06 
1.12131657236000E-06 1.14016178914000E-06 1.15932372487000E-06 1.17880770241000E-06 
1.19861913412000E-06 1.21876352329000E-06 1.23924646573000E-06 1.26007365126000E-06 
1.28125086536000E-06 1.30278399071000E-06 1.32467900888000E-06 1.34694200196000E-06 
1.36957915425000E-06 1.39259675401000E-06 1.41600119515000E-06 1.43979897907000E-06 
1.46399671640000E-06 1.48860112890000E-06 1.51361905128000E-06 1.53905743314000E-06 
1.56492334084000E-06 1.59122395954000E-06 1.61796659512000E-06 1.64515867627000E-06 
1.67280775652000E-06 1.70092151635000E-06 1.72950776532000E-06 1.75857444423000E-06 
1.78812962734000E-06 1.81818152464000E-06 1.84873848404000E-06 1.87980899380000E-06 
1.91140168481000E-06 1.94352533303000E-06 1.97618886189000E-06 2.00940134481000E-06 
2.04317200769000E-06 2.07751023149000E-06 2.11242555482000E-06 2.14792767661000E-06 
2.18402645879000E-06 2.22073192903000E-06 2.25805428352000E-06 2.29600388984000E-06 
2.33459128978000E-06 2.37382720232000E-06 2.41372252656000E-06 2.45428834480000E-06 
2.49553592559000E-06 2.53747672684000E-06 2.58012239906000E-06 2.62348478854000E-06 
2.66757594066000E-06 2.71240810325000E-06 2.75799372997000E-06 2.80434548380000E-06 
2.85147624052000E-06 2.89939909231000E-06 2.94812735137000E-06 2.99767455366000E-06 
3.04805446260000E-06 3.09928107293000E-06 3.15136861461000E-06 3.20433155671000E-06 
3.25818461152000E-06 3.31294273856000E-06 3.36862114878000E-06 3.42523530875000E-06 
3.48280094500000E-06 3.54133404835000E-06 3.60085087837000E-06 3.66136796791000E-06 
3.72290212764000E-06 3.78547045079000E-06 3.84909031786000E-06 3.91377940143000E-06 
3.97955567111000E-06 4.04643739851000E-06 4.11444316231000E-06 4.18359185345000E-06 
4.25390268034000E-06 4.32539517422000E-06 4.39808919457000E-06 4.47200493464000E-06 
4.54716292706000E-06 4.62358404953000E-06 4.70128953064000E-06 4.78030095573000E-06 
4.86064027294000E-06 4.94232979926000E-06 5.02539222674000E-06 5.10985062882000E-06 
5.19572846672000E-06 5.28304959593000E-06 5.37183827288000E-06 5.46211916168000E-06 
5.55391734092000E-06 5.64725831069000E-06 5.74216799963000E-06 5.83867277217000E-06 
5.93679943579000E-06 6.03657524855000E-06 6.13802792658000E-06 6.24118565183000E-06 
6.34607707990000E-06 6.45273134796000E-06 6.56117808289000E-06 6.67144740947000E-06 
6.78356995879000E-06 6.89757687672000E-06 7.01349983257000E-06 7.13137102792000E-06 
7.25122320552000E-06 7.37308965842000E-06 7.49700423919000E-06 7.62300136934000E-06 
7.75111604889000E-06 7.88138386607000E-06 8.01384100722000E-06 8.14852426685000E-06 
8.28547105784000E-06 8.42471942184000E-06 8.56630803986000E-06 8.71027624297000E-06 
8.85666402326000E-06 9.00551204496000E-06 9.15686165568000E-06 9.31075489797000E-06 
9.46723452093000E-06 9.62634399213000E-06 9.78812750968000E-06 9.95263001447000E-06 
1.01198972027000E-05 1.02899755386000E-05 1.04629122671000E-05 1.06387554275000E-05 
1.08175538661000E-05 1.09993572504000E-05 1.11842160823000E-05 1.13721817129000E-05 
1.15633063560000E-05 1.17576431030000E-05 1.19552459375000E-05 1.21561697506000E-05 
1.23604703557000E-05 1.25682045042000E-05 1.27794299015000E-05 1.29942052225000E-05 
1.32125901286000E-05 1.34346452836000E-05 1.36604323708000E-05 1.38900141105000E-05 
1.41234542767000E-05 1.43608177155000E-05 1.46021703626000E-05 1.48475792621000E-05 
1.50971125846000E-05 1.53508396466000E-05 1.56088309294000E-05 1.58711580989000E-05 
1.61378940255000E-05 1.64091128043000E-05 1.66848897754000E-05 1.69653015454000E-05 
1.72504260083000E-05 1.75403423671000E-05 1.78351311560000E-05 1.81348742627000E-05 
1.84396549511000E-05 1.87495578844000E-05 1.90646691488000E-05 1.93850762772000E-05 
1.97108682737000E-05 2.00421356381000E-05 2.03789703913000E-05 2.07214661006000E-05 
2.10697179060000E-05 2.14238225462000E-05 2.17838783861000E-05 2.21499854433000E-05 
2.25222454167000E-05 2.29007617143000E-05 2.32856394817000E-05 2.36769856321000E-05 
2.40749088752000E-05 2.44795197478000E-05 2.48909306444000E-05 2.53092558484000E-05 
2.57346115640000E-05 2.61671159483000E-05 2.66068891442000E-05 2.70540533137000E-05 
2.75087326720000E-05 2.79710535218000E-05 2.84411442885000E-05 2.89191355560000E-05 
2.94051601026000E-05 2.98993529384000E-05 3.04018513422000E-05 3.09127949002000E-05 
3.14323255445000E-05 3.19605875924000E-05 3.24977277868000E-05 3.30438953368000E-05 
3.35992419590000E-05 3.41639219201000E-05 3.47380920792000E-05 3.53219119317000E-05 
3.59155436535000E-05 3.65191521461000E-05 3.71329050825000E-05 3.77569729535000E-05 
3.83915291154000E-05 3.90367498377000E-05 3.96928143527000E-05 4.03599049047000E-05 
4.10382068009000E-05 4.17279084628000E-05 4.24292014788000E-05 4.31422806569000E-05 
4.38673440792000E-05 4.46045931569000E-05 4.53542326863000E-05 4.61164709052000E-05 
4.68915195515000E-05 4.76795939214000E-05 4.84809129295000E-05 4.92956991697000E-05 
5.01241789765000E-05 5.09665824887000E-05 5.18231437127000E-05 5.26941005876000E-05 
5.35796950515000E-05 5.44801731085000E-05 5.53957848973000E-05 5.63267847603000E-05 
5.72734313145000E-05 5.82359875236000E-05 5.92147207703000E-05 6.02099029313000E-05 
6.12218104524000E-05 6.22507244257000E-05 6.32969306672000E-05 6.43607197965000E-05 
6.54423873173000E-05 6.65422336998000E-05 6.76605644640000E-05 6.87976902645000E-05 
6.99539269769000E-05 7.11295957855000E-05 7.23250232725000E-05 7.35405415088000E-05 
7.47764881462000E-05 7.60332065111000E-05 7.73110457000000E-05 7.86103606766000E-05 
7.99315123699000E-05 8.12748677750000E-05 8.26408000550000E-05 8.40296886441000E-05 
8.54419193537000E-05 8.68778844792000E-05 8.83379829090000E-05 8.98226202354000E-05 
9.13322088673000E-05 9.28671681444000E-05 9.44279244543000E-05 9.60149113503000E-05 
9.76285696725000E-05 9.92693476695000E-05 1.00937701124000E-04 1.02634093477000E-04 
1.04358995961000E-04 1.06112887726000E-04 1.07896255975000E-04 1.09709596101000E-04 
1.11553411819000E-04 1.13428215314000E-04 1.15334527376000E-04 1.17272877548000E-04 
1.19243804273000E-04 1.21247855044000E-04 1.23285586555000E-04 1.25357564854000E-04 
1.27464365506000E-04 1.29606573745000E-04 1.31784784643000E-04 1.33999603274000E-04 
1.36251644878000E-04 1.38541535038000E-04 1.40869909848000E-04 1.43237416094000E-04 
1.45644711433000E-04 1.48092464572000E-04 1.50581355459000E-04 1.53112075469000E-04 
1.55685327596000E-04 1.58301826648000E-04 1.60962299447000E-04 1.63667485031000E-04 
1.66418134858000E-04 1.69215013015000E-04 1.72058896430000E-04 1.74950575089000E-04 
1.77890852255000E-04 1.80880544691000E-04 1.83920482886000E-04 1.87011511286000E-04 