<UPF version="2.0.1">
  <PP_INFO>
Generated using Vanderbilt code, version   7  3  6
Author: kfg        Generation date:    3    2 2014
Automatically converted from original USPP format to UPF.v1.

Futher converted to UPF.v2 format.
Convert Q_IJ to Q_IJL use the same routine as 'upflib/upf_to_internal.f90' of QE.
The conversion is done by using PseudoPotentialIO.jl package.
Converted by: JYU on 2024-04-30

1        The Pseudo was generated with a Scalar-Relativistic Calculation
1.40000000000E+00    Local Potential cutoff radius
nl pn  l   occ               Rcut            Rcut US             E pseu
4S  4  0  2.00      0.00000000000      1.50000000000     -6.43448347900
4P  4  1  6.00      0.00000000000      1.60000000000     -4.22274109500
4D  4  2  6.00      0.00000000000      1.75000000000     -1.13204637100
5S  5  0  1.00      0.00000000000      1.50000000000     -0.86538490900
5P  5  1  0.00      0.00000000000      1.60000000000     -0.51461442100
</PP_INFO>
  <PP_HEADER element="Ru" pseudo_type="US" relativistic="scalar" is_ultrasoft="T" is_paw="F" is_coulomb="F" has_so="F" has_wfc="F" has_gipaw="F" core_correction="T" functional="PBE" z_valence="16.0" total_psenergy="-192.836349679" wfc_cutoff="0.0" rho_cutoff="0.0" l_max="2" mesh_size="967" number_of_wfc="5" number_of_proj="6"/>
  <PP_MESH>
    <PP_R>
0.00000000000000E+00 3.48304308781000E-07 7.02462334851000E-07 1.06257245772000E-06 
1.42873471028000E-06 1.80105080664000E-06 2.17962417032000E-06 2.56455996302000E-06 
2.95596511384000E-06 3.35394834893000E-06 3.75862022177000E-06 4.17009314379000E-06 
4.58848141569000E-06 5.01390125911000E-06 5.44647084898000E-06 5.88631034629000E-06 
6.33354193150000E-06 6.78828983850000E-06 7.25068038907000E-06 7.72084202799000E-06 
8.19890535876000E-06 8.68500317980000E-06 9.17927052143000E-06 9.68184468330000E-06 
1.01928652726000E-05 1.07124742427000E-05 1.12408159329000E-05 1.17780371080000E-05 
1.23242869998000E-05 1.28797173476000E-05 1.34444824414000E-05 1.40187391640000E-05 
1.46026470348000E-05 1.51963682541000E-05 1.58000677485000E-05 1.64139132159000E-05 
1.70380751732000E-05 1.76727270025000E-05 1.83180450001000E-05 1.89742084252000E-05 
1.96413995495000E-05 2.03198037084000E-05 2.10096093517000E-05 2.17110080965000E-05 
2.24241947804000E-05 2.31493675153000E-05 2.38867277428000E-05 2.46364802898000E-05 
2.53988334259000E-05 2.61739989207000E-05 2.69621921029000E-05 2.77636319201000E-05 
2.85785409996000E-05 2.94071457104000E-05 3.02496762257000E-05 3.11063665872000E-05 
3.19774547700000E-05 3.28631827485000E-05 3.37637965641000E-05 3.46795463931000E-05 
3.56106866162000E-05 3.65574758895000E-05 3.75201772162000E-05 3.84990580194000E-05 
3.94943902168000E-05 4.05064502960000E-05 4.15355193912000E-05 4.25818833617000E-05 
4.36458328707000E-05 4.47276634667000E-05 4.58276756651000E-05 4.69461750319000E-05 
4.80834722687000E-05 4.92398832985000E-05 5.04157293542000E-05 5.16113370672000E-05 
5.28270385584000E-05 5.40631715305000E-05 5.53200793617000E-05 5.65981112013000E-05 
5.78976220661000E-05 5.92189729399000E-05 6.05625308731000E-05 6.19286690848000E-05 
6.33177670666000E-05 6.47302106880000E-05 6.61663923036000E-05 6.76267108619000E-05 
6.91115720163000E-05 7.06213882379000E-05 7.21565789298000E-05 7.37175705436000E-05 
7.53047966982000E-05 7.69186983000000E-05 7.85597236652000E-05 8.02283286450000E-05 
8.19249767513000E-05 8.36501392863000E-05 8.54042954728000E-05 8.71879325877000E-05 
8.90015460972000E-05 9.08456397946000E-05 9.27207259399000E-05 9.46273254025000E-05 
9.65659678055000E-05 9.85371916733000E-05 1.00541544581000E-04 1.02579583305000E-04 
1.04651873982000E-04 1.06758992260000E-04 1.08901523465000E-04 1.11080062757000E-04 
1.13295215299000E-04 1.15547596428000E-04 1.17837831817000E-04 1.20166557660000E-04 
1.22534420838000E-04 1.24942079107000E-04 1.27390201276000E-04 1.29879467396000E-04 
1.32410568944000E-04 1.34984209021000E-04 1.37601102543000E-04 1.40261976443000E-04 
1.42967569869000E-04 1.45718634391000E-04 1.48515934213000E-04 1.51360246380000E-04 
1.54252360997000E-04 1.57193081447000E-04 1.60183224617000E-04 1.63223621121000E-04 
1.66315115533000E-04 1.69458566622000E-04 1.72654847588000E-04 1.75904846308000E-04 
1.79209465581000E-04 1.82569623376000E-04 1.85986253094000E-04 1.89460303820000E-04 
1.92992740590000E-04 1.96584544659000E-04 2.00236713774000E-04 2.03950262450000E-04 
2.07726222252000E-04 2.11565642082000E-04 2.15469588470000E-04 2.19439145870000E-04 
2.23475416964000E-04 2.27579522964000E-04 2.31752603925000E-04 2.35995819063000E-04 
2.40310347077000E-04 2.44697386474000E-04 2.49158155904000E-04 2.53693894500000E-04 
2.58305862216000E-04 2.62995340186000E-04 2.67763631072000E-04 2.72612059430000E-04 
2.77541972077000E-04 2.82554738465000E-04 2.87651751060000E-04 2.92834425733000E-04 
2.98104202150000E-04 3.03462544169000E-04 3.08910940255000E-04 3.14450903886000E-04 
3.20083973976000E-04 3.25811715302000E-04 3.31635718942000E-04 3.37557602711000E-04 
3.43579011616000E-04 3.49701618307000E-04 3.55927123550000E-04 3.62257256691000E-04 
3.68693776140000E-04 3.75238469862000E-04 3.81893155869000E-04 3.88659682728000E-04 
3.95539930072000E-04 4.02535809127000E-04 4.09649263236000E-04 4.16882268405000E-04 
4.24236833849000E-04 4.31715002550000E-04 4.39318851824000E-04 4.47050493901000E-04 
4.54912076510000E-04 4.62905783473000E-04 4.71033835317000E-04 4.79298489885000E-04 
4.87702042968000E-04 4.96246828941000E-04 5.04935221411000E-04 5.13769633874000E-04 
5.22752520392000E-04 5.31886376269000E-04 5.41173738745000E-04 5.50617187704000E-04 
5.60219346385000E-04 5.69982882118000E-04 5.79910507058000E-04 5.90004978943000E-04 
6.00269101858000E-04 6.10705727013000E-04 6.21317753539000E-04 6.32108129288000E-04 
6.43079851658000E-04 6.54235968418000E-04 6.65579578563000E-04 6.77113833167000E-04 
6.88841936265000E-04 7.00767145739000E-04 7.12892774223000E-04 7.25222190025000E-04 
7.37758818063000E-04 7.50506140814000E-04 7.63467699282000E-04 7.76647093984000E-04 
7.90047985948000E-04 8.03674097729000E-04 8.17529214447000E-04 8.31617184835000E-04 
8.45941922307000E-04 8.60507406049000E-04 8.75317682124000E-04 8.90376864591000E-04 
9.05689136655000E-04 9.21258751821000E-04 9.37090035085000E-04 9.53187384125000E-04 
9.69555270531000E-04 9.86198241044000E-04 1.00312091882000E-03 1.02032800471000E-03 
1.03782427856000E-03 1.05561460058000E-03 1.07370391263000E-03 1.09209723963000E-03 
1.11079969096000E-03 1.12981646187000E-03 1.14915283491000E-03 1.16881418143000E-03 
1.18880596303000E-03 1.20913373312000E-03 1.22980313843000E-03 1.25081992059000E-03 
1.27218991774000E-03 1.29391906612000E-03 1.31601340175000E-03 1.33847906208000E-03 
1.36132228772000E-03 1.38454942416000E-03 1.40816692353000E-03 1.43218134639000E-03 
1.45659936358000E-03 1.48142775803000E-03 1.50667342669000E-03 1.53234338239000E-03 
1.55844475585000E-03 1.58498479761000E-03 1.61197088009000E-03 1.63941049958000E-03 
1.66731127838000E-03 1.69568096689000E-03 1.72452744576000E-03 1.75385872808000E-03 
1.78368296163000E-03 1.81400843109000E-03 1.84484356042000E-03 1.87619691511000E-03 
1.90807720465000E-03 1.94049328486000E-03 1.97345416043000E-03 2.00696898736000E-03 
2.04104707554000E-03 2.07569789134000E-03 2.11093106019000E-03 2.14675636932000E-03 
2.18318377043000E-03 2.22022338248000E-03 2.25788549448000E-03 2.29618056839000E-03 
2.33511924195000E-03 2.37471233173000E-03 2.41497083606000E-03 2.45590593812000E-03 
2.49752900902000E-03 2.53985161100000E-03 2.58288550062000E-03 2.62664263200000E-03 
2.67113516019000E-03 2.71637544450000E-03 2.76237605199000E-03 2.80914976088000E-03 
2.85670956417000E-03 2.90506867323000E-03 2.95424052146000E-03 3.00423876801000E-03 
3.05507730161000E-03 3.10677024441000E-03 3.15933195588000E-03 3.21277703684000E-03 
3.26712033349000E-03 3.32237694153000E-03 3.37856221039000E-03 3.43569174744000E-03 
3.49378142236000E-03 3.55284737155000E-03 3.61290600259000E-03 3.67397399884000E-03 
3.73606832400000E-03 3.79920622691000E-03 3.86340524627000E-03 3.92868321557000E-03 
3.99505826798000E-03 4.06254884145000E-03 4.13117368380000E-03 4.20095185792000E-03 
4.27190274709000E-03 4.34404606035000E-03 4.41740183796000E-03 4.49199045700000E-03 
4.56783263703000E-03 4.64494944578000E-03 4.72336230510000E-03 4.80309299685000E-03 
4.88416366893000E-03 4.96659684152000E-03 5.05041541325000E-03 5.13564266758000E-03 
5.22230227930000E-03 5.31041832110000E-03 5.40001527020000E-03 5.49111801523000E-03 
5.58375186309000E-03 5.67794254601000E-03 5.77371622866000E-03 5.87109951546000E-03 
5.97011945796000E-03 6.07080356232000E-03 6.17317979701000E-03 6.27727660052000E-03 
6.38312288930000E-03 6.49074806579000E-03 6.60018202654000E-03 6.71145517060000E-03 
6.82459840788000E-03 6.93964316778000E-03 7.05662140793000E-03 7.17556562303000E-03 
7.29650885391000E-03 7.41948469669000E-03 7.54452731210000E-03 7.67167143503000E-03 
7.80095238409000E-03 7.93240607149000E-03 8.06606901300000E-03 8.20197833805000E-03 
8.34017180013000E-03 8.48068778719000E-03 8.62356533236000E-03 8.76884412475000E-03 
8.91656452052000E-03 9.06676755407000E-03 9.21949494943000E-03 9.37478913186000E-03 
9.53269323962000E-03 9.69325113598000E-03 9.85650742140000E-03 1.00225074459000E-02 
1.01912973216000E-02 1.03629239358000E-02 1.05374349635000E-02 1.07148788813000E-02 
1.08953049801000E-02 1.10787633796000E-02 1.12653050415000E-02 1.14549817842000E-02 
1.16478462970000E-02 1.18439521544000E-02 1.20433538317000E-02 1.22461067195000E-02 
1.24522671393000E-02 1.26618923592000E-02 1.28750406098000E-02 1.30917711003000E-02 
1.33121440351000E-02 1.35362206302000E-02 1.37640631306000E-02 1.39957348274000E-02 
1.42313000752000E-02 1.44708243104000E-02 1.47143740690000E-02 1.49620170053000E-02 
1.52138219107000E-02 1.54698587325000E-02 1.57301985937000E-02 1.59949138126000E-02 
1.62640779229000E-02 1.65377656942000E-02 1.68160531526000E-02 1.70990176020000E-02 
1.73867376454000E-02 1.76792932070000E-02 1.79767655539000E-02 1.82792373194000E-02 
1.85867925253000E-02 1.88995166056000E-02 1.92174964301000E-02 1.95408203286000E-02 
1.98695781154000E-02 2.02038611141000E-02 2.05437621834000E-02 2.08893757424000E-02 
2.12407977970000E-02 2.15981259667000E-02 2.19614595117000E-02 2.23308993604000E-02 
2.27065481371000E-02 2.30885101914000E-02 2.34768916261000E-02 2.38718003275000E-02 
2.42733459950000E-02 2.46816401717000E-02 2.50967962752000E-02 2.55189296294000E-02 
2.59481574961000E-02 2.63845991082000E-02 2.68283757023000E-02 2.72796105524000E-02 
2.77384290044000E-02 2.82049585110000E-02 2.86793286666000E-02 2.91616712437000E-02 
2.96521202295000E-02 3.01508118631000E-02 3.06578846730000E-02 3.11734795160000E-02 
3.16977396164000E-02 3.22308106052000E-02 3.27728405611000E-02 3.33239800516000E-02 
3.38843821744000E-02 3.44542026005000E-02 3.50335996169000E-02 3.56227341710000E-02 
3.62217699151000E-02 3.68308732517000E-02 3.74502133803000E-02 3.80799623437000E-02 
3.87202950763000E-02 3.93713894523000E-02 4.00334263355000E-02 4.07065896293000E-02 
4.13910663278000E-02 4.20870465679000E-02 4.27947236818000E-02 4.35142942511000E-02 
4.42459581611000E-02 4.49899186565000E-02 4.57463823978000E-02 4.65155595187000E-02 
4.72976636844000E-02 4.80929121511000E-02 4.89015258262000E-02 4.97237293300000E-02 
5.05597510574000E-02 5.14098232423000E-02 5.22741820211000E-02 5.31530674991000E-02 
5.40467238168000E-02 5.49553992179000E-02 5.58793461180000E-02 5.68188211749000E-02 
5.77740853601000E-02 5.87454040307000E-02 5.97330470038000E-02 6.07372886310000E-02 
6.17584078749000E-02 6.27966883860000E-02 6.38524185825000E-02 6.49258917295000E-02 
6.60174060208000E-02 6.71272646620000E-02 6.82557759541000E-02 6.94032533799000E-02 
7.05700156904000E-02 7.17563869937000E-02 7.29626968452000E-02 7.41892803385000E-02 
7.54364781993000E-02 7.67046368794000E-02 7.79941086533000E-02 7.93052517158000E-02 
8.06384302818000E-02 8.19940146873000E-02 8.33723814921000E-02 8.47739135849000E-02 
8.61990002890000E-02 8.76480374712000E-02 8.91214276509000E-02 9.06195801128000E-02 
9.21429110200000E-02 9.36918435296000E-02 9.52668079108000E-02 9.68682416637000E-02 
9.84965896414000E-02 1.00152304173000E-01 1.01835845190000E-01 1.03547680354000E-01 
1.05288285185000E-01 1.07058143196000E-01 1.08857746025000E-01 1.10687593575000E-01 
1.12548194146000E-01 1.14440064586000E-01 1.16363730425000E-01 1.18319726028000E-01 
1.20308594739000E-01 1.22330889035000E-01 1.24387170676000E-01 1.26478010867000E-01 
1.28603990408000E-01 1.30765699865000E-01 1.32963739724000E-01 1.35198720567000E-01 
1.37471263237000E-01 1.39781999010000E-01 1.42131569772000E-01 1.44520628196000E-01 
1.46949837926000E-01 1.49419873756000E-01 1.51931421825000E-01 1.54485179801000E-01 
1.57081857077000E-01 1.59722174969000E-01 1.62406866916000E-01 1.65136678682000E-01 
1.67912368567000E-01 1.70734707614000E-01 1.73604479823000E-01 1.76522482371000E-01 
1.79489525835000E-01 1.82506434411000E-01 1.85574046150000E-01 1.88693213185000E-01 
1.91864801972000E-01 1.95089693528000E-01 1.98368783676000E-01 2.01702983297000E-01 
2.05093218579000E-01 2.08540431275000E-01 2.12045578966000E-01 2.15609635327000E-01 
2.19233590397000E-01 2.22918450853000E-01 2.26665240292000E-01 2.30474999512000E-01 
2.34348786804000E-01 2.38287678245000E-01 2.42292767996000E-01 2.46365168610000E-01 
2.50506011334000E-01 2.54716446428000E-01 2.58997643486000E-01 2.63350791756000E-01 
2.67777100474000E-01 2.72277799199000E-01 2.76854138153000E-01 2.81507388572000E-01 
2.86238843055000E-01 2.91049815925000E-01 2.95941643595000E-01 3.00915684936000E-01 
3.05973321660000E-01 3.11115958697000E-01 3.16345024592000E-01 3.21661971896000E-01 
3.27068277572000E-01 3.32565443408000E-01 3.38154996430000E-01 3.43838489326000E-01 
3.49617500881000E-01 3.55493636414000E-01 3.61468528222000E-01 3.67543836036000E-01 
3.73721247480000E-01 3.80002478542000E-01 3.86389274048000E-01 3.92883408150000E-01 
3.99486684815000E-01 4.06200938329000E-01 4.13028033806000E-01 4.19969867706000E-01 
4.27028368359000E-01 4.34205496506000E-01 4.41503245840000E-01 4.48923643561000E-01 
4.56468750937000E-01 4.64140663880000E-01 4.71941513528000E-01 4.79873466831000E-01 
4.87938727163000E-01 4.96139534924000E-01 5.04478168170000E-01 5.12956943241000E-01 
5.21578215407000E-01 5.30344379522000E-01 5.39257870687000E-01 5.48321164930000E-01 
5.57536779890000E-01 5.66907275519000E-01 5.76435254794000E-01 5.86123364437000E-01 
5.95974295651000E-01 6.05990784870000E-01 6.16175614516000E-01 6.26531613774000E-01 
6.37061659376000E-01 6.47768676405000E-01 6.58655639098000E-01 6.69725571684000E-01 
6.80981549214000E-01 6.92426698422000E-01 7.04064198588000E-01 7.15897282427000E-01 
7.27929236982000E-01 7.40163404541000E-01 7.52603183562000E-01 7.65252029619000E-01 
7.78113456362000E-01 7.91191036492000E-01 8.04488402754000E-01 8.18009248947000E-01 
8.31757330948000E-01 8.45736467757000E-01 8.59950542559000E-01 8.74403503797000E-01 
8.89099366277000E-01 9.04042212277000E-01 9.19236192684000E-01 9.34685528146000E-01 
9.50394510243000E-01 9.66367502684000E-01 9.82608942513000E-01 9.99123341346000E-01 
1.01591528662000E+00 1.03298944288000E+00 1.05035055304000E+00 1.06800343976000E+00 
1.08595300673000E+00 1.10420424005000E+00 1.12276220963000E+00 1.14163207057000E+00 
1.16081906463000E+00 1.18032852166000E+00 1.20016586106000E+00 1.22033659334000E+00 
1.24084632162000E+00 1.26170074316000E+00 1.28290565100000E+00 1.30446693553000E+00 
1.32639058613000E+00 1.34868269285000E+00 1.37134944808000E+00 1.39439714828000E+00 
1.41783219575000E+00 1.44166110037000E+00 1.46589048143000E+00 1.49052706947000E+00 
1.51557770816000E+00 1.54104935615000E+00 1.56694908908000E+00 1.59328410147000E+00 
1.62006170878000E+00 1.64728934941000E+00 1.67497458676000E+00 1.70312511136000E+00 
1.73174874298000E+00 1.76085343280000E+00 1.79044726566000E+00 1.82053846225000E+00 
1.85113538143000E+00 1.88224652255000E+00 1.91388052778000E+00 1.94604618455000E+00 
1.97875242798000E+00 2.01200834334000E+00 2.04582316860000E+00 2.08020629699000E+00 
2.11516727959000E+00 2.15071582802000E+00 2.18686181710000E+00 2.22361528761000E+00 
2.26098644909000E+00 2.29898568266000E+00 2.33762354390000E+00 2.37691076580000E+00 
2.41685826173000E+00 2.45747712848000E+00 2.49877864932000E+00 2.54077429717000E+00 
2.58347573775000E+00 2.62689483285000E+00 2.67104364360000E+00 2.71593443386000E+00 
2.76157967356000E+00 2.80799204225000E+00 2.85518443254000E+00 2.90316995373000E+00 
2.95196193544000E+00 3.00157393132000E+00 3.05201972279000E+00 3.10331332291000E+00 
3.15546898021000E+00 3.20850118272000E+00 3.26242466194000E+00 3.31725439698000E+00 
3.37300561865000E+00 3.42969381378000E+00 3.48733472944000E+00 3.54594437737000E+00 
3.60553903842000E+00 3.66613526702000E+00 3.72774989586000E+00 3.79040004051000E+00 
3.85410310419000E+00 3.91887678261000E+00 3.98473906887000E+00 4.05170825847000E+00 
4.11980295439000E+00 4.18904207227000E+00 4.25944484565000E+00 4.33103083129000E+00 
4.40381991466000E+00 4.47783231541000E+00 4.55308859302000E+00 4.62960965250000E+00 
4.70741675018000E+00 4.78653149965000E+00 4.86697587774000E+00 4.94877223063000E+00 
5.03194328005000E+00 5.11651212960000E+00 5.20250227118000E+00 5.28993759149000E+00 
5.37884237868000E+00 5.46924132910000E+00 5.56115955414000E+00 5.65462258724000E+00 
5.74965639096000E+00 5.84628736418000E+00 5.94454234946000E+00 6.04444864048000E+00 
6.14603398964000E+00 6.24932661574000E+00 6.35435521184000E+00 6.46114895323000E+00 
6.56973750551000E+00 6.68015103289000E+00 6.79242020648000E+00 6.90657621290000E+00 
7.02265076287000E+00 7.14067610008000E+00 7.26068501011000E+00 7.38271082952000E+00 
7.50678745517000E+00 7.63294935359000E+00 7.76123157055000E+00 7.89166974084000E+00 
8.02430009810000E+00 8.15915948498000E+00 8.29628536326000E+00 8.43571582436000E+00 
8.57748959985000E+00 8.72164607225000E+00 8.86822528596000E+00 9.01726795836000E+00 
9.16881549115000E+00 9.32290998185000E+00 9.47959423547000E+00 9.63891177643000E+00 
9.80090686061000E+00 9.96562448770000E+00 1.01331104136000E+01 1.03034111634000E+01 
1.04765740438000E+01 1.06526471568000E+01 1.08316794127000E+01 1.10137205439000E+01 
1.11988211184000E+01 1.13870325544000E+01 1.15784071339000E+01 1.17729980179000E+01 
1.19708592605000E+01 1.21720458245000E+01 1.23766135965000E+01 1.25846194019000E+01 
1.27961210217000E+01 1.30111772075000E+01 1.32298476987000E+01 1.34521932384000E+01 
1.36782755907000E+01 1.39081575577000E+01 1.41419029970000E+01 1.43795768393000E+01 
1.46212451068000E+01 1.48669749310000E+01 1.51168345719000E+01 1.53708934364000E+01 
1.56292220981000E+01 1.58918923167000E+01 1.61589770577000E+01 1.64305505132000E+01 
1.67066881218000E+01 1.69874665904000E+01 1.72729639146000E+01 1.75632594012000E+01 
1.78584336897000E+01 1.81585687747000E+01 1.84637480292000E+01 1.87740562271000E+01 
1.90895795670000E+01 1.94104056965000E+01 1.97366237358000E+01 2.00683243033000E+01 
2.04055995402000E+01 2.07485431361000E+01 2.10972503554000E+01 2.14518180634000E+01 
2.18123447535000E+01 2.21789305742000E+01 2.25516773573000E+01 2.29306886461000E+01 
2.33160697238000E+01 2.37079276431000E+01 2.41063712562000E+01 2.45115112442000E+01 
2.49234601488000E+01 2.53423324027000E+01 2.57682443621000E+01 2.62013143387000E+01 
2.66416626323000E+01 2.70894115648000E+01 2.75446855139000E+01 2.80076109473000E+01 
2.84783164585000E+01 2.89569328021000E+01 2.94435929300000E+01 2.99384320289000E+01 
3.04415875571000E+01 3.09531992834000E+01 3.14734093253000E+01 3.20023621892000E+01 
3.25402048095000E+01 3.30870865907000E+01 3.36431594478000E+01 3.42085778490000E+01 
3.47834988587000E+01 3.53680821808000E+01 3.59624902034000E+01 3.65668880435000E+01 
3.71814435935000E+01 3.78063275671000E+01 3.84417135472000E+01 3.90877780340000E+01 
3.97447004940000E+01 4.04126634099000E+01 4.10918523312000E+01 4.17824559260000E+01 
4.24846660329000E+01 4.31986777149000E+01 4.39246893132000E+01 4.46629025022000E+01 
4.54135223460000E+01 4.61767573548000E+01 4.69528195434000E+01 4.77419244895000E+01 
4.85442913941000E+01 4.93601431419000E+01 5.01897063638000E+01 5.10332114992000E+01 
5.18908928606000E+01 5.27629886984000E+01 5.36497412669000E+01 5.45513968921000E+01 
5.54682060396000E+01 5.64004233845000E+01 5.73483078822000E+01 5.83121228398000E+01 
5.92921359901000E+01 6.02886195652000E+01 6.13018503724000E+01 6.23321098714000E+01 
6.33796842518000E+01 6.44448645135000E+01 6.55279465465000E+01 6.66292312140000E+01 
6.77490244354000E+01 6.88876372718000E+01 7.00453860116000E+01 7.12225922592000E+01 
7.24195830240000E+01 7.36366908111000E+01 7.48742537137000E+01 7.61326155073000E+01 
7.74121257450000E+01 7.87131398545000E+01 8.00360192369000E+01 8.13811313673000E+01 
8.27488498966000E+01 8.41395547553000E+01 8.55536322594000E+01 8.69914752172000E+01 
8.84534830388000E+01 8.99400618469000E+01 9.14516245896000E+01 9.29885911551000E+01 
9.45513884885000E+01 9.61404507102000E+01 9.77562192366000E+01 9.93991429027000E+01 
1.01069678087000E+02 1.02768288837000E+02 1.04495447001000E+02 1.06251632355000E+02 
1.08037332741000E+02 1.09853044197000E+02 1.11699271100000E+02 1.13576526303000E+02 
1.15485331276000E+02 1.17426216257000E+02 1.19399720391000E+02 1.21406391889000E+02 
1.23446788170000E+02 1.25521476025000E+02 1.27631031770000E+02 1.29776041406000E+02 
1.31957100783000E+02 1.34174815763000E+02 1.36429802395000E+02 1.38722687077000E+02 
1.41054106736000E+02 1.43424709005000E+02 1.45835152398000E+02 1.48286106500000E+02 
1.50778252145000E+02 1.53312281614000E+02 1.55888898820000E+02 1.58508819505000E+02 
1.61172771443000E+02 1.63881494638000E+02 1.66635741529000E+02 1.69436277204000E+02 
1.72283879606000E+02 1.75179339755000E+02 1.78123461964000E+02 1.81117064064000E+02 
1.84160977629000E+02 1.87256048212000E+02 1.90403135573000E+02 1.93603113925000E+02 
1.96856872169000E+02 2.00165314150000E+02 2.03529358900000E+02 
</PP_R>
    <PP_RAB>
3.45409835437000E-07 3.51214907250000E-07 3.57117541018000E-07 3.63119376399000E-07 
3.69222080609000E-07 3.75427348881000E-07 3.81736904943000E-07 3.88152501488000E-07 
3.94675920668000E-07 4.01308974586000E-07 4.08053505800000E-07 4.14911387834000E-07 
4.21884525699000E-07 4.28974856423000E-07 4.36184349587000E-07 4.43515007875000E-07 
4.50968867629000E-07 4.58547999412000E-07 4.66254508588000E-07 4.74090535904000E-07 
4.82058258083000E-07 4.90159888434000E-07 4.98397677461000E-07 5.06773913492000E-07 
5.15290923314000E-07 5.23951072816000E-07 5.32756767652000E-07 5.41710453904000E-07 
5.50814618767000E-07 5.60071791231000E-07 5.69484542795000E-07 5.79055488171000E-07 
5.88787286017000E-07 5.98682639673000E-07 6.08744297912000E-07 6.18975055703000E-07 
6.29377754990000E-07 6.39955285478000E-07 6.50710585438000E-07 6.61646642523000E-07 
6.72766494596000E-07 6.84073230577000E-07 6.95569991299000E-07 7.07259970379000E-07 
7.19146415111000E-07 7.31232627359000E-07 7.43521964484000E-07 7.56017840268000E-07 
7.68723725870000E-07 7.81643150782000E-07 7.94779703819000E-07 8.08137034105000E-07 
8.21718852098000E-07 8.35528930611000E-07 8.49571105866000E-07 8.63849278558000E-07 
8.78367414937000E-07 8.93129547913000E-07 9.08139778173000E-07 9.23402275322000E-07 
9.38921279040000E-07 9.54701100263000E-07 9.70746122374000E-07 9.87060802427000E-07 
1.00364967238000E-06 1.02051734037000E-06 1.03766849196000E-06 1.05510789146000E-06 
1.07284038328000E-06 1.09087089322000E-06 1.10920442986000E-06 1.12784608597000E-06 
1.14680103992000E-06 1.16607455708000E-06 1.18567199134000E-06 1.20559878656000E-06 
1.22586047808000E-06 1.24646269428000E-06 1.26741115813000E-06 1.28871168879000E-06 
1.31037020321000E-06 1.33239271777000E-06 1.35478534999000E-06 1.37755432018000E-06 
1.40070595321000E-06 1.42424668024000E-06 1.44818304050000E-06 1.47252168313000E-06 
1.49726936904000E-06 1.52243297274000E-06 1.54801948427000E-06 1.57403601116000E-06 
1.60048978041000E-06 1.62738814044000E-06 1.65473856319000E-06 1.68254864619000E-06 
1.71082611463000E-06 1.73957882354000E-06 1.76881475998000E-06 1.79854204523000E-06 
1.82876893706000E-06 1.85950383201000E-06 1.89075526777000E-06 1.92253192548000E-06 
1.95484263220000E-06 1.98769636333000E-06 2.02110224512000E-06 2.05506955719000E-06 
2.08960773514000E-06 2.12472637311000E-06 2.16043522652000E-06 2.19674421471000E-06 
2.23366342376000E-06 2.27120310923000E-06 2.30937369906000E-06 2.34818579643000E-06 
2.38765018273000E-06 2.42777782055000E-06 2.46857985671000E-06 2.51006762536000E-06 
2.55225265117000E-06 2.59514665245000E-06 2.63876154450000E-06 2.68310944282000E-06 
2.72820266658000E-06 2.77405374196000E-06 2.82067540565000E-06 2.86808060843000E-06 
2.91628251871000E-06 2.96529452622000E-06 3.01513024572000E-06 3.06580352079000E-06 
3.11732842766000E-06 3.16971927914000E-06 3.22299062857000E-06 3.27715727391000E-06 
3.33223426178000E-06 3.38823689171000E-06 3.44518072034000E-06 3.50308156577000E-06 
3.56195551193000E-06 3.62181891308000E-06 3.68268839834000E-06 3.74458087627000E-06 
3.80751353963000E-06 3.87150387013000E-06 3.93656964326000E-06 4.00272893328000E-06 
4.07000011818000E-06 4.13840188484000E-06 4.20795323418000E-06 4.27867348649000E-06 
4.35058228672000E-06 4.42369961000000E-06 4.49804576717000E-06 4.57364141043000E-06 
4.65050753904000E-06 4.72866550521000E-06 4.80813701997000E-06 4.88894415927000E-06 
4.97110937005000E-06 5.05465547651000E-06 5.13960568644000E-06 5.22598359766000E-06 
5.31381320460000E-06 5.40311890492000E-06 5.49392550636000E-06 5.58625823353000E-06 
5.68014273503000E-06 5.77560509048000E-06 5.87267181781000E-06 5.97136988063000E-06 
6.07172669570000E-06 6.17377014056000E-06 6.27752856127000E-06 6.38303078028000E-06 
6.49030610444000E-06 6.59938433314000E-06 6.71029576659000E-06 6.82307121423000E-06 
6.93774200331000E-06 7.05433998755000E-06 7.17289755604000E-06 7.29344764219000E-06 
7.41602373292000E-06 7.54065987793000E-06 7.66739069917000E-06 7.79625140046000E-06 
7.92727777727000E-06 8.06050622666000E-06 8.19597375738000E-06 8.33371800019000E-06 
8.47377721824000E-06 8.61619031779000E-06 8.76099685895000E-06 8.90823706667000E-06 
9.05795184197000E-06 9.21018277325000E-06 9.36497214786000E-06 9.52236296383000E-06 
9.68239894186000E-06 9.84512453741000E-06 1.00105849531000E-05 1.01788261512000E-05 
1.03498948664000E-05 1.05238386190000E-05 1.07007057277000E-05 1.08805453236000E-05 
1.10634073631000E-05 1.12493426424000E-05 1.14384028115000E-05 1.16306403882000E-05 
1.18261087732000E-05 1.20248622644000E-05 1.22269560725000E-05 1.24324463359000E-05 
1.26413901365000E-05 1.28538455157000E-05 1.30698714901000E-05 1.32895280685000E-05 
1.35128762679000E-05 1.37399781309000E-05 1.39708967429000E-05 1.42056962493000E-05 
1.44444418739000E-05 1.46871999363000E-05 1.49340378708000E-05 1.51850242453000E-05 
1.54402287797000E-05 1.56997223658000E-05 1.59635770868000E-05 1.62318662375000E-05 
1.65046643443000E-05 1.67820471862000E-05 1.70640918157000E-05 1.73508765805000E-05 
1.76424811448000E-05 1.79389865118000E-05 1.82404750459000E-05 1.85470304959000E-05 
1.88587380181000E-05 1.91756841999000E-05 1.94979570840000E-05 1.98256461926000E-05 
2.01588425526000E-05 2.04976387208000E-05 2.08421288092000E-05 2.11924085120000E-05 
2.15485751311000E-05 2.19107276041000E-05 2.22789665312000E-05 2.26533942034000E-05 
2.30341146308000E-05 2.34212335714000E-05 2.38148585609000E-05 2.42150989419000E-05 
2.46220658951000E-05 2.50358724693000E-05 2.54566336135000E-05 2.58844662086000E-05 
2.63194890995000E-05 2.67618231290000E-05 2.72115911702000E-05 2.76689181617000E-05 
2.81339311418000E-05 2.86067592836000E-05 2.90875339314000E-05 2.95763886368000E-05 
3.00734591959000E-05 3.05788836870000E-05 3.10928025091000E-05 3.16153584207000E-05 
3.21466965796000E-05 3.26869645831000E-05 3.32363125092000E-05 3.37948929581000E-05 
3.43628610945000E-05 3.49403746910000E-05 3.55275941719000E-05 3.61246826574000E-05 
3.67318060092000E-05 3.73491328767000E-05 3.79768347435000E-05 3.86150859752000E-05 
3.92640638680000E-05 3.99239486977000E-05 4.05949237698000E-05 4.12771754707000E-05 
4.19708933191000E-05 4.26762700188000E-05 4.33935015124000E-05 4.41227870354000E-05 
4.48643291719000E-05 4.56183339105000E-05 4.63850107019000E-05 4.71645725167000E-05 
4.79572359050000E-05 4.87632210560000E-05 4.95827518598000E-05 5.04160559690000E-05 
5.12633648624000E-05 5.21249139089000E-05 5.30009424335000E-05 5.38916937828000E-05 
5.47974153936000E-05 5.57183588610000E-05 5.66547800086000E-05 5.76069389594000E-05 
5.85751002081000E-05 5.95595326946000E-05 6.05605098787000E-05 6.15783098161000E-05 
6.26132152354000E-05 6.36655136172000E-05 6.47354972733000E-05 6.58234634282000E-05 
6.69297143017000E-05 6.80545571930000E-05 6.91983045654000E-05 7.03612741341000E-05 
7.15437889536000E-05 7.27461775079000E-05 7.39687738014000E-05 7.52119174522000E-05 
7.64759537859000E-05 7.77612339318000E-05 7.90681149205000E-05 8.03969597829000E-05 
8.17481376510000E-05 8.31220238608000E-05 8.45190000562000E-05 8.59394542951000E-05 
8.73837811572000E-05 8.88523818537000E-05 9.03456643388000E-05 9.18640434226000E-05 
9.34079408870000E-05 9.49777856022000E-05 9.65740136464000E-05 9.81970684265000E-05 
9.98474008014000E-05 1.01525469207000E-04 1.03231739786000E-04 1.04966686511000E-04 
1.06730791324000E-04 1.08524544265000E-04 1.10348443611000E-04 1.12202996012000E-04 
1.14088716633000E-04 1.16006129298000E-04 1.17955766634000E-04 1.19938170219000E-04 
1.21953890734000E-04 1.24003488114000E-04 1.26087531704000E-04 1.28206600419000E-04 
1.30361282904000E-04 1.32552177694000E-04 1.34779893385000E-04 1.37045048803000E-04 
1.39348273171000E-04 1.41690206289000E-04 1.44071498708000E-04 1.46492811915000E-04 
1.48954818511000E-04 1.51458202403000E-04 1.54003658993000E-04 1.56591895366000E-04 
1.59223630496000E-04 1.61899595435000E-04 1.64620533525000E-04 1.67387200600000E-04 
1.70200365196000E-04 1.73060808765000E-04 1.75969325894000E-04 1.78926724523000E-04 
1.81933826170000E-04 1.84991466161000E-04 1.88100493860000E-04 1.91261772906000E-04 