<UPF version="2.0.1">
  <PP_INFO>
Generated using Vanderbilt code, version   7  3  6
Author: kfg        Generation date:    1    4   15
Automatically converted from original USPP format to UPF.v1.

Futher converted to UPF.v2 format.
Convert Q_IJ to Q_IJL use the same routine as 'upflib/upf_to_internal.f90' of QE.
The conversion is done by using PseudoPotentialIO.jl package.
Converted by: JYU on 2024-04-30

1        The Pseudo was generated with a Scalar-Relativistic Calculation
1.50000000000E+00    Local Potential cutoff radius
nl pn  l   occ               Rcut            Rcut US             E pseu
3S  3  0  2.00      0.00000000000      1.50000000000     -1.26833444300
3P  3  1  4.00      0.00000000000      1.50000000000     -0.51513600900
</PP_INFO>
  <PP_HEADER element="S" pseudo_type="US" relativistic="scalar" is_ultrasoft="T" is_paw="F" is_coulomb="F" has_so="F" has_wfc="F" has_gipaw="F" core_correction="T" functional="PBE" z_valence="6.0" total_psenergy="-23.7969529108" wfc_cutoff="0.0" rho_cutoff="0.0" l_max="2" mesh_size="907" number_of_wfc="2" number_of_proj="6"/>
  <PP_MESH>
    <PP_R>
0.00000000000000E+00 9.57836849149000E-07 1.93177142084000E-06 2.92207425872000E-06 
3.92902045327000E-06 4.95288971825000E-06 5.99396646837000E-06 7.05253989832000E-06 
8.12890406306000E-06 9.22335795957000E-06 1.03362056099000E-05 1.14677561454000E-05 
1.26183238931000E-05 1.37882284626000E-05 1.49777948347000E-05 1.61873534523000E-05 
1.74172403116000E-05 1.86677970559000E-05 1.99393710699000E-05 2.12323155770000E-05 
2.25469897366000E-05 2.38837587445000E-05 2.52429939339000E-05 2.66250728791000E-05 
2.80303794996000E-05 2.94593041675000E-05 3.09122438154000E-05 3.23896020471000E-05 
3.38917892493000E-05 3.54192227060000E-05 3.69723267139000E-05 3.85515327010000E-05 
4.01572793456000E-05 4.17900126989000E-05 4.34501863083000E-05 4.51382613439000E-05 
4.68547067262000E-05 4.85999992568000E-05 5.03746237502000E-05 5.21790731692000E-05 
5.40138487612000E-05 5.58794601981000E-05 5.77764257171000E-05 5.97052722654000E-05 
6.16665356461000E-05 6.36607606671000E-05 6.56885012926000E-05 6.77503207971000E-05 
6.98467919213000E-05 7.19784970319000E-05 7.41460282829000E-05 7.63499877802000E-05 
7.85909877490000E-05 8.08696507036000E-05 8.31866096207000E-05 8.55425081149000E-05 
8.79380006174000E-05 9.03737525585000E-05 9.28504405514000E-05 9.53687525809000E-05 
9.79293881945000E-05 1.00533058696000E-04 1.03180487344000E-04 1.05872409553000E-04 
1.08609573096000E-04 1.11392738314000E-04 1.14222678326000E-04 1.17100179245000E-04 
1.20026040394000E-04 1.23001074533000E-04 1.26026108079000E-04 1.29101981338000E-04 
1.32229548739000E-04 1.35409679071000E-04 1.38643255724000E-04 1.41931176935000E-04 
1.45274356036000E-04 1.48673721709000E-04 1.52130218245000E-04 1.55644805804000E-04 
1.59218460682000E-04 1.62852175585000E-04 1.66546959901000E-04 1.70303839983000E-04 
1.74123859433000E-04 1.78008079392000E-04 1.81957578835000E-04 1.85973454870000E-04 
1.90056823045000E-04 1.94208817654000E-04 1.98430592057000E-04 2.02723318995000E-04 
2.07088190920000E-04 2.11526420325000E-04 2.16039240079000E-04 2.20627903774000E-04 
2.25293686066000E-04 2.30037883037000E-04 2.34861812550000E-04 2.39766814616000E-04 
2.44754251767000E-04 2.49825509435000E-04 2.54981996335000E-04 2.60225144857000E-04 
2.65556411465000E-04 2.70977277102000E-04 2.76489247597000E-04 2.82093854089000E-04 
2.87792653450000E-04 2.93587228716000E-04 2.99479189528000E-04 3.05470172580000E-04 
3.11561842073000E-04 3.17755890176000E-04 3.24054037498000E-04 3.30458033564000E-04 
3.36969657304000E-04 3.43590717544000E-04 3.50323053510000E-04 3.57168535338000E-04 
3.64129064596000E-04 3.71206574808000E-04 3.78403031995000E-04 3.85720435219000E-04 
3.93160817139000E-04 4.00726244576000E-04 4.08418819086000E-04 4.16240677544000E-04 
4.24193992740000E-04 4.32280973979000E-04 4.40503867697000E-04 4.48864958083000E-04 
4.57366567717000E-04 4.66011058210000E-04 4.74800830868000E-04 4.83738327348000E-04 
4.92826030347000E-04 5.02066464285000E-04 5.11462196009000E-04 5.21015835504000E-04 
5.30730036621000E-04 5.40607497812000E-04 5.50650962878000E-04 5.60863221737000E-04 
5.71247111192000E-04 5.81805515724000E-04 5.92541368291000E-04 6.03457651144000E-04 
6.14557396652000E-04 6.25843688151000E-04 6.37319660793000E-04 6.48988502423000E-04 
6.60853454461000E-04 6.72917812803000E-04 6.85184928736000E-04 6.97658209874000E-04 
7.10341121095000E-04 7.23237185512000E-04 7.36349985448000E-04 7.49683163433000E-04 
7.63240423212000E-04 7.77025530777000E-04 7.91042315415000E-04 8.05294670767000E-04 
8.19786555911000E-04 8.34521996465000E-04 8.49505085702000E-04 8.64739985686000E-04 
8.80230928433000E-04 8.95982217081000E-04 9.11998227091000E-04 9.28283407456000E-04 
9.44842281943000E-04 9.61679450346000E-04 9.78799589763000E-04 9.96207455900000E-04 
1.01390788439000E-03 1.03190579212000E-03 1.05020617864000E-03 1.06881412750000E-03 
1.08773480770000E-03 1.10697347510000E-03 1.12653547390000E-03 1.14642623811000E-03 
1.16665129308000E-03 1.18721625701000E-03 1.20812684252000E-03 1.22938885823000E-03 
1.25100821040000E-03 1.27299090455000E-03 1.29534304712000E-03 1.31807084718000E-03 
1.34118061816000E-03 1.36467877959000E-03 1.38857185888000E-03 1.41286649315000E-03 
1.43756943108000E-03 1.46268753474000E-03 1.48822778155000E-03 1.51419726618000E-03 
1.54060320256000E-03 1.56745292583000E-03 1.59475389441000E-03 1.62251369209000E-03 
1.65074003011000E-03 1.67944074929000E-03 1.70862382223000E-03 1.73829735554000E-03 
1.76846959206000E-03 1.79914891315000E-03 1.83034384105000E-03 1.86206304121000E-03 
1.89431532473000E-03 1.92710965078000E-03 1.96045512911000E-03 1.99436102257000E-03 
2.02883674967000E-03 2.06389188724000E-03 2.09953617302000E-03 2.13577950846000E-03 
2.17263196136000E-03 2.21010376876000E-03 2.24820533973000E-03 2.28694725830000E-03 
2.32634028634000E-03 2.36639536664000E-03 2.40712362584000E-03 2.44853637763000E-03 
2.49064512580000E-03 2.53346156751000E-03 2.57699759648000E-03 2.62126530634000E-03 
2.66627699396000E-03 2.71204516287000E-03 2.75858252675000E-03 2.80590201294000E-03 
2.85401676605000E-03 2.90294015160000E-03 2.95268575973000E-03 3.00326740898000E-03 
3.05469915014000E-03 3.10699527014000E-03 3.16017029601000E-03 3.21423899893000E-03 
3.26921639834000E-03 3.32511776608000E-03 3.38195863068000E-03 3.43975478163000E-03 
3.49852227378000E-03 3.55827743183000E-03 3.61903685480000E-03 3.68081742072000E-03 
3.74363629123000E-03 3.80751091643000E-03 3.87245903969000E-03 3.93849870257000E-03 
4.00564824984000E-03 4.07392633459000E-03 4.14335192339000E-03 4.21394430157000E-03 
4.28572307858000E-03 4.35870819343000E-03 4.43291992023000E-03 4.50837887384000E-03 
4.58510601555000E-03 4.66312265895000E-03 4.74245047584000E-03 4.82311150222000E-03 
4.90512814447000E-03 4.98852318550000E-03 5.07331979115000E-03 5.15954151656000E-03 
5.24721231278000E-03 5.33635653336000E-03 5.42699894117000E-03 5.51916471523000E-03 
5.61287945774000E-03 5.70816920118000E-03 5.80506041552000E-03 5.90358001562000E-03 
6.00375536868000E-03 6.10561430181000E-03 6.20918510983000E-03 6.31449656306000E-03 
6.42157791537000E-03 6.53045891227000E-03 6.64116979917000E-03 6.75374132982000E-03 
6.86820477480000E-03 6.98459193025000E-03 7.10293512670000E-03 7.22326723800000E-03 
7.34562169052000E-03 7.47003247239000E-03 7.59653414296000E-03 7.72516184241000E-03 
7.85595130147000E-03 7.98893885139000E-03 8.12416143401000E-03 8.26165661203000E-03 
8.40146257944000E-03 8.54361817213000E-03 8.68816287867000E-03 8.83513685131000E-03 
8.98458091709000E-03 9.13653658921000E-03 9.29104607857000E-03 9.44815230545000E-03 
9.60789891148000E-03 9.77033027175000E-03 9.93549150713000E-03 1.01034284968000E-02 
1.02741878910000E-02 1.04478171240000E-02 1.06243644272000E-02 1.08038788428000E-02 
1.09864102369000E-02 1.11720093140000E-02 1.13607276304000E-02 1.15526176093000E-02 
1.17477325545000E-02 1.19461266659000E-02 1.21478550544000E-02 1.23529737568000E-02 
1.25615397518000E-02 1.27736109759000E-02 1.29892463390000E-02 1.32085057413000E-02 
1.34314500896000E-02 1.36581413142000E-02 1.38886423864000E-02 1.41230173358000E-02 
1.43613312681000E-02 1.46036503830000E-02 1.48500419930000E-02 1.51005745419000E-02 
1.53553176235000E-02 1.56143420015000E-02 1.58777196288000E-02 1.61455236675000E-02 
1.64178285094000E-02 1.66947097964000E-02 1.69762444418000E-02 1.72625106514000E-02 
1.75535879456000E-02 1.78495571809000E-02 1.81505005730000E-02 1.84565017191000E-02 
1.87676456217000E-02 1.90840187114000E-02 1.94057088718000E-02 1.97328054633000E-02 
2.00653993483000E-02 2.04035829159000E-02 2.07474501083000E-02 2.10970964463000E-02 
2.14526190562000E-02 2.18141166966000E-02 2.21816897857000E-02 2.25554404297000E-02 
2.29354724504000E-02 2.33218914148000E-02 2.37148046640000E-02 2.41143213431000E-02 
2.45205524314000E-02 2.49336107737000E-02 2.53536111109000E-02 2.57806701126000E-02 
2.62149064089000E-02 2.66564406239000E-02 2.71053954088000E-02 2.75618954762000E-02 
2.80260676345000E-02 2.84980408234000E-02 2.89779461497000E-02 2.94659169235000E-02 
2.99620886953000E-02 3.04665992938000E-02 3.09795888641000E-02 3.15011999066000E-02 
3.20315773167000E-02 3.25708684247000E-02 3.31192230373000E-02 3.36767934786000E-02 
3.42437346330000E-02 3.48202039878000E-02 3.54063616770000E-02 3.60023705259000E-02 
3.66083960965000E-02 3.72246067331000E-02 3.78511736092000E-02 3.84882707752000E-02 
3.91360752067000E-02 3.97947668535000E-02 4.04645286897000E-02 4.11455467647000E-02 
4.18380102544000E-02 4.25421115143000E-02 4.32580461326000E-02 4.39860129846000E-02 
4.47262142880000E-02 4.54788556591000E-02 4.62441461698000E-02 4.70222984056000E-02 
4.78135285249000E-02 4.86180563191000E-02 4.94361052732000E-02 5.02679026283000E-02 
5.11136794445000E-02 5.19736706654000E-02 5.28481151828000E-02 5.37372559037000E-02 
5.46413398173000E-02 5.55606180639000E-02 5.64953460044000E-02 5.74457832915000E-02 
5.84121939416000E-02 5.93948464084000E-02 6.03940136573000E-02 6.14099732410000E-02 
6.24430073772000E-02 6.34934030263000E-02 6.45614519718000E-02 6.56474509007000E-02 
6.67517014864000E-02 6.78745104722000E-02 6.90161897569000E-02 7.01770564808000E-02 
7.13574331144000E-02 7.25576475477000E-02 7.37780331813000E-02 7.50189290190000E-02 
7.62806797622000E-02 7.75636359052000E-02 7.88681538330000E-02 8.01945959201000E-02 
8.15433306312000E-02 8.29147326234000E-02 8.43091828507000E-02 8.57270686691000E-02 
8.71687839450000E-02 8.86347291642000E-02 9.01253115431000E-02 9.16409451419000E-02 
9.31820509797000E-02 9.47490571514000E-02 9.63423989465000E-02 9.79625189703000E-02 
9.96098672664000E-02 1.01284901442000E-01 1.02988086796000E-01 1.04719896445000E-01 
1.06480811460000E-01 1.08271320994000E-01 1.10091922423000E-01 1.11943121481000E-01 
1.13825432402000E-01 1.15739378062000E-01 1.17685490125000E-01 1.19664309191000E-01 
1.21676384943000E-01 1.23722276305000E-01 1.25802551594000E-01 1.27917788676000E-01 
1.30068575132000E-01 1.32255508415000E-01 1.34479196022000E-01 1.36740255657000E-01 
1.39039315408000E-01 1.41377013916000E-01 1.43754000558000E-01 1.46170935623000E-01 
1.48628490496000E-01 1.51127347849000E-01 1.53668201824000E-01 1.56251758231000E-01 
1.58878734740000E-01 1.61549861084000E-01 1.64265879260000E-01 1.67027543735000E-01 
1.69835621656000E-01 1.72690893062000E-01 1.75594151102000E-01 1.78546202256000E-01 
1.81547866557000E-01 1.84599977820000E-01 1.87703383874000E-01 1.90858946795000E-01 
1.94067543149000E-01 1.97330064233000E-01 2.00647416324000E-01 2.04020520931000E-01 
2.07450315048000E-01 2.10937751418000E-01 2.14483798797000E-01 2.18089442219000E-01 
2.21755683275000E-01 2.25483540390000E-01 2.29274049103000E-01 2.33128262358000E-01 
2.37047250795000E-01 2.41032103046000E-01 2.45083926040000E-01 2.49203845310000E-01 
2.53393005305000E-01 2.57652569707000E-01 2.61983721755000E-01 2.66387664575000E-01 
2.70865621514000E-01 2.75418836476000E-01 2.80048574273000E-01 2.84756120974000E-01 
2.89542784259000E-01 2.94409893789000E-01 2.99358801570000E-01 3.04390882330000E-01 
3.09507533902000E-01 3.14710177610000E-01 3.20000258668000E-01 3.25379246576000E-01 
3.30848635532000E-01 3.36409944845000E-01 3.42064719360000E-01 3.47814529884000E-01 
3.53660973623000E-01 3.59605674628000E-01 3.65650284241000E-01 3.71796481561000E-01 
3.78045973903000E-01 3.84400497278000E-01 3.90861816873000E-01 3.97431727540000E-01 
4.04112054296000E-01 4.10904652830000E-01 4.17811410020000E-01 4.24834244452000E-01 
4.31975106961000E-01 4.39235981164000E-01 4.46618884018000E-01 4.54125866376000E-01 
4.61759013560000E-01 4.69520445938000E-01 4.77412319512000E-01 4.85436826521000E-01 
4.93596196046000E-01 5.01892694631000E-01 5.10328626913000E-01 5.18906336259000E-01 
5.27628205422000E-01 5.36496657201000E-01 5.45514155110000E-01 5.54683204068000E-01 
5.64006351092000E-01 5.73486186005000E-01 5.83125342156000E-01 5.92926497150000E-01 
6.02892373592000E-01 6.13025739847000E-01 6.23329410803000E-01 6.33806248657000E-01 
6.44459163710000E-01 6.55291115173000E-01 6.66305111990000E-01 6.77504213677000E-01 
6.88891531167000E-01 7.00470227677000E-01 7.12243519586000E-01 7.24214677329000E-01 
7.36387026303000E-01 7.48763947796000E-01 7.61348879921000E-01 7.74145318573000E-01 
7.87156818401000E-01 8.00386993794000E-01 8.13839519885000E-01 8.27518133574000E-01 
8.41426634565000E-01 8.55568886418000E-01 8.69948817628000E-01 8.84570422713000E-01 
8.99437763324000E-01 9.14554969373000E-01 9.29926240182000E-01 9.45555845646000E-01 
9.61448127423000E-01 9.77607500139000E-01 9.94038452611000E-01 1.01074554910000E+00 
1.02773343057000E+00 1.04500681599000E+00 1.06257050363000E+00 1.08042937241000E+00 
1.09858838324000E+00 1.11705258041000E+00 1.13582709297000E+00 1.15491713619000E+00 
1.17432801299000E+00 1.19406511539000E+00 1.21413392606000E+00 1.23454001979000E+00 
1.25528906508000E+00 1.27638682567000E+00 1.29783916220000E+00 1.31965203379000E+00 
1.34183149970000E+00 1.36438372104000E+00 1.38731496247000E+00 1.41063159391000E+00 
1.43434009237000E+00 1.45844704369000E+00 1.48295914439000E+00 1.50788320356000E+00 
1.53322614470000E+00 1.55899500768000E+00 1.58519695068000E+00 1.61183925220000E+00 
1.63892931304000E+00 1.66647465839000E+00 1.69448293992000E+00 1.72296193788000E+00 
1.75191956329000E+00 1.78136386011000E+00 1.81130300752000E+00 1.84174532213000E+00 
1.87269926034000E+00 1.90417342066000E+00 1.93617654612000E+00 1.96871752667000E+00 
2.00180540170000E+00 2.03544936249000E+00 2.06965875480000E+00 2.10444308145000E+00 
2.13981200499000E+00 2.17577535035000E+00 2.21234310757000E+00 2.24952543460000E+00 
2.28733266011000E+00 2.32577528633000E+00 2.36486399204000E+00 2.40460963544000E+00 
2.44502325726000E+00 2.48611608376000E+00 2.52789952988000E+00 2.57038520240000E+00 
2.61358490317000E+00 2.65751063238000E+00 2.70217459191000E+00 2.74758918870000E+00 
2.79376703821000E+00 2.84072096791000E+00 2.88846402087000E+00 2.93700945935000E+00 
2.98637076851000E+00 3.03656166014000E+00 3.08759607647000E+00 3.13948819407000E+00 
3.19225242774000E+00 3.24590343455000E+00 3.30045611791000E+00 3.35592563169000E+00 
3.41232738445000E+00 3.46967704369000E+00 3.52799054026000E+00 3.58728407272000E+00 
3.64757411187000E+00 3.70887740534000E+00 3.77121098221000E+00 3.83459215777000E+00 
3.89903853831000E+00 3.96456802601000E+00 4.03119882393000E+00 4.09894944106000E+00 
4.16783869743000E+00 4.23788572942000E+00 4.30910999496000E+00 4.38153127905000E+00 
4.45516969916000E+00 4.53004571088000E+00 4.60618011360000E+00 4.68359405625000E+00 
4.76230904319000E+00 4.84234694021000E+00 4.92372998056000E+00 5.00648077119000E+00 
5.09062229894000E+00 5.17617793700000E+00 5.26317145139000E+00 5.35162700751000E+00 
5.44156917694000E+00 5.53302294419000E+00 5.62601371366000E+00 5.72056731673000E+00 
5.81671001888000E+00 5.91446852706000E+00 6.01386999702000E+00 6.11494204093000E+00 
6.21771273500000E+00 6.32221062731000E+00 6.42846474572000E+00 6.53650460595000E+00 
6.64636021976000E+00 6.75806210332000E+00 6.87164128563000E+00 6.98712931721000E+00 
7.10455827881000E+00 7.22396079033000E+00 7.34537001990000E+00 7.46881969310000E+00 
7.59434410230000E+00 7.72197811619000E+00 7.85175718948000E+00 7.98371737275000E+00 
8.11789532247000E+00 8.25432831114000E+00 8.39305423769000E+00 8.53411163799000E+00 
8.67753969557000E+00 8.82337825247000E+00 8.97166782034000E+00 9.12244959168000E+00 
9.27576545129000E+00 9.43165798788000E+00 9.59017050596000E+00 9.75134703778000E+00 
9.91523235564000E+00 1.00818719843000E+01 1.02513122136000E+01 1.04236001114000E+01 
1.05987835365000E+01 1.07769111522000E+01 1.09580324394000E+01 1.11421977108000E+01 
1.13294581246000E+01 1.15198656987000E+01 1.17134733255000E+01 1.19103347860000E+01 
1.21105047653000E+01 1.23140388674000E+01 1.25209936308000E+01 1.27314265444000E+01 
1.29453960630000E+01 1.31629616240000E+01 1.33841836638000E+01 1.36091236342000E+01 
1.38378440201000E+01 1.40704083564000E+01 1.43068812458000E+01 1.45473283766000E+01 
1.47918165414000E+01 1.50404136550000E+01 1.52931887739000E+01 1.55502121149000E+01 
1.58115550751000E+01 1.60772902515000E+01 1.63474914610000E+01 1.66222337613000E+01 
1.69015934715000E+01 1.71856481933000E+01 1.74744768326000E+01 1.77681596214000E+01 
1.80667781402000E+01 1.83704153404000E+01 1.86791555678000E+01 1.89930845855000E+01 
1.93122895979000E+01 1.96368592752000E+01 1.99668837778000E+01 2.03024547812000E+01 
2.06436655017000E+01 2.09906107224000E+01 2.13433868190000E+01 2.17020917873000E+01 
2.20668252698000E+01 2.24376885837000E+01 2.28147847490000E+01 2.31982185170000E+01 
2.35880963996000E+01 2.39845266987000E+01 2.43876195364000E+01 2.47974868855000E+01 
2.52142426007000E+01 2.56380024501000E+01 2.60688841476000E+01 2.65070073852000E+01 
2.69524938667000E+01 2.74054673412000E+01 2.78660536375000E+01 2.83343806994000E+01 
2.88105786205000E+01 2.92947796813000E+01 2.97871183850000E+01 3.02877314957000E+01 
3.07967580757000E+01 3.13143395246000E+01 3.18406196183000E+01 3.23757445491000E+01 
3.29198629664000E+01 3.34731260175000E+01 3.40356873902000E+01 3.46077033553000E+01 
3.51893328096000E+01 3.57807373207000E+01 3.63820811714000E+01 3.69935314056000E+01 
3.76152578744000E+01 3.82474332836000E+01 3.88902332416000E+01 3.95438363081000E+01 
4.02084240437000E+01 4.08841810603000E+01 4.15712950726000E+01 4.22699569501000E+01 
4.29803607698000E+01 4.37027038709000E+01 4.44371869087000E+01 4.51840139112000E+01 
4.59433923350000E+01 4.67155331235000E+01 4.75006507652000E+01 4.82989633533000E+01 
4.91106926466000E+01 4.99360641305000E+01 5.07753070803000E+01 5.16286546244000E+01 
5.24963438093000E+01 5.33786156653000E+01 5.42757152735000E+01 5.51878918342000E+01 
5.61153987355000E+01 5.70584936243000E+01 5.80174384773000E+01 5.89924996744000E+01 
5.99839480720000E+01 6.09920590790000E+01 6.20171127327000E+01 6.30593937767000E+01 
6.41191917403000E+01 6.51968010186000E+01 6.62925209545000E+01 6.74066559217000E+01 
6.85395154092000E+01 6.96914141075000E+01 7.08626719959000E+01 7.20536144313000E+01 
7.32645722388000E+01 7.44958818033000E+01 7.57478851632000E+01 7.70209301051000E+01 
7.83153702610000E+01 7.96315652057000E+01 8.09698805576000E+01 8.23306880794000E+01 
8.37143657820000E+01 8.51212980293000E+01 8.65518756447000E+01 8.80064960202000E+01 
8.94855632263000E+01 9.09894881245000E+01 9.25186884814000E+01 9.40735890848000E+01 
9.56546218614000E+01 9.72622259972000E+01 9.88968480592000E+01 1.00558942120000E+02 
1.02248969882000E+02 1.03967400809000E+02 1.05714712255000E+02 1.07491389593000E+02 
1.09297926358000E+02 1.11134824377000E+02 1.13002593911000E+02 1.14901753796000E+02 
1.16832831591000E+02 1.18796363716000E+02 1.20792895611000E+02 1.22822981881000E+02 
1.24887186451000E+02 1.26986082726000E+02 1.29120253744000E+02 1.31290292346000E+02 
1.33496801334000E+02 1.35740393640000E+02 1.38021692500000E+02 1.40341331623000E+02 
1.42699955367000E+02 1.45098218921000E+02 1.47536788484000E+02 1.50016341453000E+02 
1.52537566609000E+02 1.55101164307000E+02 1.57707846676000E+02 1.60358337810000E+02 
1.63053373973000E+02 1.65793703804000E+02 1.68580088524000E+02 1.71413302146000E+02 
1.74294131693000E+02 1.77223377412000E+02 1.80201853003000E+02 1.83230385838000E+02 
1.86309817197000E+02 1.89441002497000E+02 1.92624811532000E+02 1.95862128713000E+02 
1.99153853316000E+02 2.02500899730000E+02 2.05904197713000E+02 
</PP_R>
    <PP_RAB>
9.49877047453000E-07 9.65840994938000E-07 9.82073237800000E-07 9.98578285098000E-07 
1.01536072167000E-06 1.03242520942000E-06 1.04977648859000E-06 1.06741937909000E-06 
1.08535878184000E-06 1.10359968011000E-06 1.12214714095000E-06 1.14100631654000E-06 
1.16018244567000E-06 1.17968085516000E-06 1.19950696136000E-06 1.21966627166000E-06 
1.24016438598000E-06 1.26100699838000E-06 1.28219989862000E-06 1.30374897374000E-06 
1.32566020973000E-06 1.34793969319000E-06 1.37059361302000E-06 1.39362826210000E-06 
1.41705003911000E-06 1.44086545024000E-06 1.46508111104000E-06 1.48970374824000E-06 
1.51474020161000E-06 1.54019742589000E-06 1.56608249268000E-06 1.59240259247000E-06 
1.61916503655000E-06 1.64637725910000E-06 1.67404681926000E-06 1.70218140318000E-06 
1.73078882622000E-06 1.75987703507000E-06 1.78945410996000E-06 1.81952826694000E-06 
1.85010786014000E-06 1.88120138409000E-06 1.91281747607000E-06 1.94496491854000E-06 
1.97765264155000E-06 2.01088972524000E-06 2.04468540233000E-06 2.07904906074000E-06 
2.11399024614000E-06 2.14951866465000E-06 2.18564418550000E-06 2.22237684379000E-06 
2.25972684327000E-06 2.29770455918000E-06 2.33632054113000E-06 2.37558551603000E-06 
2.41551039108000E-06 2.45610625676000E-06 2.49738438998000E-06 2.53935625713000E-06 
2.58203351736000E-06 2.62542802572000E-06 2.66955183653000E-06 2.71441720668000E-06 
2.76003659906000E-06 2.80642268602000E-06 2.85358835288000E-06 2.90154670153000E-06 
2.95031105403000E-06 2.99989495634000E-06 3.05031218210000E-06 3.10157673642000E-06 
3.15370285977000E-06 3.20670503197000E-06 3.26059797619000E-06 3.31539666303000E-06 
3.37111631471000E-06 3.42777240927000E-06 3.48538068487000E-06 3.54395714418000E-06 
3.60351805882000E-06 3.66407997387000E-06 3.72565971247000E-06 3.78827438050000E-06 
3.85194137134000E-06 3.91667837065000E-06 3.98250336137000E-06 4.04943462862000E-06 
4.11749076487000E-06 4.18669067502000E-06 4.25705358173000E-06 4.32859903070000E-06 
4.40134689612000E-06 4.47531738620000E-06 4.55053104878000E-06 4.62700877701000E-06 
4.70477181522000E-06 4.78384176474000E-06 4.86424058995000E-06 4.94599062439000E-06 
5.02911457691000E-06 5.11363553804000E-06 5.19957698636000E-06 5.28696279507000E-06 
5.37581723854000E-06 5.46616499915000E-06 5.55803117407000E-06 5.65144128228000E-06 
5.74642127163000E-06 5.84299752606000E-06 5.94119687292000E-06 6.04104659046000E-06 
6.14257441534000E-06 6.24580855039000E-06 6.35077767241000E-06 6.45751094018000E-06 
6.56603800252000E-06 6.67638900652000E-06 6.78859460595000E-06 6.90268596975000E-06 
7.01869479071000E-06 7.13665329425000E-06 7.25659424736000E-06 7.37855096776000E-06 
7.50255733310000E-06 7.62864779038000E-06 7.75685736555000E-06 7.88722167319000E-06 
8.01977692646000E-06 8.15455994711000E-06 8.29160817574000E-06 8.43095968217000E-06 
8.57265317606000E-06 8.71672801763000E-06 8.86322422858000E-06 9.01218250325000E-06 
9.16364421990000E-06 9.31765145220000E-06 9.47424698093000E-06 9.63347430586000E-06 
9.79537765781000E-06 9.96000201098000E-06 1.01273930954000E-05 1.02975974097000E-05 
1.04706622340000E-05 1.06466356429000E-05 1.08255665190000E-05 1.10075045665000E-05 
1.11925003250000E-05 1.13806051833000E-05 1.15718713940000E-05 1.17663520878000E-05 
1.19641012885000E-05 1.21651739275000E-05 1.23696258597000E-05 1.25775138787000E-05 
1.27888957324000E-05 1.30038301393000E-05 1.32223768049000E-05 1.34445964380000E-05 
1.36705507676000E-05 1.39003025604000E-05 1.41339156377000E-05 1.43714548936000E-05 
1.46129863126000E-05 1.48585769885000E-05 1.51082951425000E-05 1.53622101422000E-05 
1.56203925213000E-05 1.58829139988000E-05 1.61498474990000E-05 1.64212671717000E-05 
1.66972484132000E-05 1.69778678865000E-05 1.72632035435000E-05 1.75533346458000E-05 
1.78483417872000E-05 1.81483069161000E-05 1.84533133581000E-05 1.87634458391000E-05 
1.90787905091000E-05 1.93994349658000E-05 1.97254682791000E-05 2.00569810160000E-05 
2.03940652655000E-05 2.07368146643000E-05 2.10853244227000E-05 2.14396913513000E-05 
2.18000138875000E-05 2.21663921233000E-05 2.25389278328000E-05 2.29177245005000E-05 
2.33028873502000E-05 2.36945233739000E-05 2.40927413621000E-05 2.44976519333000E-05 
2.49093675654000E-05 2.53280026264000E-05 2.57536734066000E-05 2.61864981505000E-05 
2.66265970901000E-05 2.70740924779000E-05 2.75291086210000E-05 2.79917719157000E-05 
2.84622108826000E-05 2.89405562022000E-05 2.94269407513000E-05 2.99214996398000E-05 
3.04243702484000E-05 3.09356922666000E-05 3.14556077316000E-05 3.19842610676000E-05 
3.25217991263000E-05 3.30683712272000E-05 3.36241291993000E-05 3.41892274236000E-05 
3.47638228753000E-05 3.53480751681000E-05 3.59421465979000E-05 3.65462021884000E-05 
3.71604097367000E-05 3.77849398600000E-05 3.84199660430000E-05 3.90656646857000E-05 
3.97222151532000E-05 4.03897998247000E-05 4.10686041448000E-05 4.17588166746000E-05 
4.24606291441000E-05 4.31742365059000E-05 4.38998369888000E-05 4.46376321532000E-05 
4.53878269468000E-05 4.61506297620000E-05 4.69262524933000E-05 4.77149105965000E-05 
4.85168231483000E-05 4.93322129074000E-05 5.01613063762000E-05 5.10043338638000E-05 
5.18615295499000E-05 5.27331315498000E-05 5.36193819809000E-05 5.45205270296000E-05 
5.54368170197000E-05 5.63685064821000E-05 5.73158542254000E-05 5.82791234079000E-05 
5.92585816105000E-05 6.02545009113000E-05 6.12671579609000E-05 6.22968340594000E-05 
6.33438152346000E-05 6.44083923214000E-05 6.54908610424000E-05 6.65915220903000E-05 
6.77106812115000E-05 6.88486492906000E-05 7.00057424372000E-05 7.11822820736000E-05 
7.23785950238000E-05 7.35950136046000E-05 7.48318757180000E-05 7.60895249448000E-05 
7.73683106399000E-05 7.86685880300000E-05 7.99907183114000E-05 8.13350687512000E-05 
8.27020127886000E-05 8.40919301392000E-05 8.55052068999000E-05 8.69422356568000E-05 
8.84034155938000E-05 8.98891526035000E-05 9.13998594003000E-05 9.29359556346000E-05 
9.44978680098000E-05 9.60860304004000E-05 9.77008839728000E-05 9.93428773079000E-05 
1.01012466525000E-04 1.02710115411000E-04 1.04436295545000E-04 1.06191486432000E-04 
1.07976175637000E-04 1.09790858919000E-04 1.11636040367000E-04 1.13512232544000E-04 
1.15419956627000E-04 1.17359742552000E-04 1.19332129159000E-04 1.21337664347000E-04 
1.23376905223000E-04 1.25450418254000E-04 1.27558779430000E-04 1.29702574421000E-04 
1.31882398739000E-04 1.34098857904000E-04 1.36352567614000E-04 1.38644153915000E-04 
1.40974253371000E-04 1.43343513250000E-04 1.45752591692000E-04 1.48202157903000E-04 
1.50692892332000E-04 1.53225486868000E-04 1.55800645024000E-04 1.58419082138000E-04 
1.61081525572000E-04 1.63788714910000E-04 1.66541402166000E-04 1.69340351994000E-04 
1.72186341897000E-04 1.75080162447000E-04 1.78022617502000E-04 1.81014524428000E-04 
1.84056714330000E-04 1.87150032281000E-04 1.90295337555000E-04 1.93493503869000E-04 
1.96745419622000E-04 2.00051988147000E-04 2.03414127954000E-04 2.06832772993000E-04 
2.10308872911000E-04 2.13843393312000E-04 2.17437316031000E-04 2.21091639403000E-04 
2.24807378540000E-04 2.28585565617000E-04 2.32427250155000E-04 2.36333499311000E-04 
2.40305398182000E-04 2.44344050098000E-04 2.48450576932000E-04 2.52626119412000E-04 
2.56871837439000E-04 2.61188910406000E-04 2.65578537528000E-04 2.70041938173000E-04 
2.74580352204000E-04 2.79195040321000E-04 2.83887284410000E-04 2.88658387905000E-04 
2.93509676141000E-04 2.98442496729000E-04 3.03458219931000E-04 3.08558239033000E-04 
3.13743970742000E-04 3.19016855571000E-04 3.24378358244000E-04 3.29829968103000E-04 
3.35373199518000E-04 3.41009592312000E-04 3.46740712185000E-04 3.52568151153000E-04 
3.58493527985000E-04 3.64518488657000E-04 3.70644706810000E-04 3.76873884208000E-04 
3.83207751220000E-04 3.89648067294000E-04 3.96196621447000E-04 4.02855232765000E-04 
4.09625750905000E-04 4.16510056609000E-04 4.23510062230000E-04 4.30627712258000E-04 
4.37864983863000E-04 4.45223887447000E-04 4.52706467195000E-04 4.60314801651000E-04 
4.68051004289000E-04 4.75917224104000E-04 4.83915646209000E-04 4.92048492439000E-04 
5.00318021969000E-04 5.08726531944000E-04 5.17276358116000E-04 5.25969875492000E-04 
5.34809498992000E-04 5.43797684126000E-04 5.52936927669000E-04 5.62229768358000E-04 
5.71678787598000E-04 5.81286610177000E-04 5.91055904997000E-04 6.00989385813000E-04 
6.11089811990000E-04 6.21359989266000E-04 6.31802770534000E-04 6.42421056635000E-04 
6.53217797159000E-04 6.64195991273000E-04 6.75358688543000E-04 6.86708989792000E-04 
6.98250047954000E-04 7.09985068952000E-04 7.21917312590000E-04 7.34050093457000E-04 
7.46386781848000E-04 7.58930804699000E-04 7.71685646543000E-04 7.84654850474000E-04 
7.97842019130000E-04 8.11250815699000E-04 8.24884964934000E-04 8.38748254185000E-04 
8.52844534456000E-04 8.67177721470000E-04 8.81751796761000E-04 8.96570808776000E-04 
9.11638874003000E-04 9.26960178113000E-04 9.42538977121000E-04 9.58379598572000E-04 
9.74486442741000E-04 9.90863983855000E-04 1.00751677134000E-03 1.02444943106000E-03 
1.04166666667000E-03 1.05917326082000E-03 1.07697407658000E-03 1.09507405873000E-03 
1.11347823515000E-03 1.13219171825000E-03 1.15121970633000E-03 1.17056748506000E-03 
1.19024042895000E-03 1.21024400284000E-03 1.23058376340000E-03 1.25126536070000E-03 
1.27229453975000E-03 1.29367714213000E-03 1.31541910760000E-03 1.33752647572000E-03 
1.36000538757000E-03 1.38286208744000E-03 1.40610292456000E-03 1.42973435487000E-03 
1.45376294280000E-03 1.47819536312000E-03 1.50303840277000E-03 1.52829896275000E-03 
1.55398406004000E-03 1.58010082957000E-03 1.60665652616000E-03 1.63365852655000E-03 