<UPF version="2.0.1">
  <PP_INFO>
Generated using Vanderbilt code, version   7  3  6
Author: kfg        Generation date:    1    4   15
Automatically converted from original USPP format to UPF.v1.

Futher converted to UPF.v2 format.
Convert Q_IJ to Q_IJL use the same routine as 'upflib/upf_to_internal.f90' of QE.
The conversion is done by using PseudoPotentialIO.jl package.
Converted by: JYU on 2024-04-30

1        The Pseudo was generated with a Scalar-Relativistic Calculation
2.10000000000E+00    Local Potential cutoff radius
nl pn  l   occ               Rcut            Rcut US             E pseu
4D  4  2 10.00      0.00000000000      2.00000000000     -2.48470062500
5S  5  0  2.00      0.00000000000      1.70000000000     -1.30914304700
5P  5  1  1.00      0.00000000000      1.80000000000     -0.75377114500
</PP_INFO>
  <PP_HEADER element="Sn" pseudo_type="US" relativistic="scalar" is_ultrasoft="T" is_paw="F" is_coulomb="F" has_so="F" has_wfc="F" has_gipaw="F" core_correction="T" functional="PBE" z_valence="14.0" total_psenergy="-158.464486134" wfc_cutoff="0.0" rho_cutoff="0.0" l_max="2" mesh_size="891" number_of_wfc="3" number_of_proj="6"/>
  <PP_MESH>
    <PP_R>
0.00000000000000E+00 1.14441022725000E-09 2.31779133734000E-09 3.52087673165000E-09 
4.75441837771000E-09 6.01918727922000E-09 7.31597395790000E-09 8.64558894766000E-09 
1.00088633011000E-08 1.14066491092000E-08 1.28398200334000E-08 1.43092718523000E-08 
1.58159230211000E-08 1.73607152458000E-08 1.89446140719000E-08 2.05686094877000E-08 
2.22337165432000E-08 2.39409759844000E-08 2.56914549042000E-08 2.74862474088000E-08 
2.93264753020000E-08 3.12132887860000E-08 3.31478671809000E-08 3.51314196609000E-08 
3.71651860111000E-08 3.92504374015000E-08 4.13884771822000E-08 4.35806416977000E-08 
4.58283011220000E-08 4.81328603156000E-08 5.04957597030000E-08 5.29184761731000E-08 
5.54025240026000E-08 5.79494558023000E-08 6.05608634876000E-08 6.32383792731000E-08 
6.59836766934000E-08 6.87984716488000E-08 7.16845234777000E-08 7.46436360565000E-08 
7.76776589269000E-08 8.07884884520000E-08 8.39780690014000E-08 8.72483941668000E-08 
9.06015080080000E-08 9.40395063301000E-08 9.75645379942000E-08 1.01178806260000E-07 
1.04884570162000E-07 1.08684145924000E-07 1.12579908404000E-07 1.16574292582000E-07 
1.20669795076000E-07 1.24868975709000E-07 1.29174459106000E-07 1.33588936334000E-07 
1.38115166585000E-07 1.42755978901000E-07 1.47514273940000E-07 1.52393025791000E-07 
1.57395283833000E-07 1.62524174640000E-07 1.67782903937000E-07 1.73174758599000E-07 
1.78703108712000E-07 1.84371409675000E-07 1.90183204359000E-07 1.96142125326000E-07 
2.02251897096000E-07 2.08516338475000E-07 2.14939364942000E-07 2.21524991098000E-07 
2.28277333174000E-07 2.35200611604000E-07 2.42299153661000E-07 2.49577396166000E-07 
2.57039888257000E-07 2.64691294236000E-07 2.72536396478000E-07 2.80580098430000E-07 
2.88827427665000E-07 2.97283539035000E-07 3.05953717882000E-07 3.14843383353000E-07 
3.23958091776000E-07 3.33303540141000E-07 3.42885569659000E-07 3.52710169408000E-07 
3.62783480084000E-07 3.73111797834000E-07 3.83701578192000E-07 3.94559440117000E-07 
4.05692170125000E-07 4.17106726534000E-07 4.28810243815000E-07 4.40810037047000E-07 
4.53113606490000E-07 4.65728642277000E-07 4.78663029215000E-07 4.91924851718000E-07 
5.05522398855000E-07 5.19464169537000E-07 5.33758877825000E-07 5.48415458375000E-07 
5.63443072028000E-07 5.78851111533000E-07 5.94649207414000E-07 6.10847233997000E-07 
6.27455315575000E-07 6.44483832739000E-07 6.61943428869000E-07 6.79845016778000E-07 
6.98199785543000E-07 7.17019207491000E-07 7.36315045375000E-07 7.56099359719000E-07 
7.76384516366000E-07 7.97183194199000E-07 8.18508393067000E-07 8.40373441915000E-07 
8.62792007110000E-07 8.85778100985000E-07 9.09346090596000E-07 9.33510706706000E-07 
9.58287052984000E-07 9.83690615454000E-07 1.00973727217000E-06 1.03644330314000E-06 
1.06382540050000E-06 1.09190067896000E-06 1.12068668648000E-06 1.15020141524000E-06 
1.18046331292000E-06 1.21149129419000E-06 1.24330475255000E-06 1.27592357243000E-06 
1.30936814168000E-06 1.34365936422000E-06 1.37881867320000E-06 1.41486804432000E-06 
1.45183000961000E-06 1.48972767152000E-06 1.52858471730000E-06 1.56842543387000E-06 
1.60927472299000E-06 1.65115811679000E-06 1.69410179375000E-06 1.73813259507000E-06 
1.78327804142000E-06 1.82956635020000E-06 1.87702645309000E-06 1.92568801420000E-06 
1.97558144860000E-06 2.02673794131000E-06 2.07918946679000E-06 2.13296880896000E-06 
2.18810958166000E-06 2.24464624967000E-06 2.30261415024000E-06 2.36204951520000E-06 
2.42298949359000E-06 2.48547217488000E-06 2.54953661278000E-06 2.61522284964000E-06 
2.68257194150000E-06 2.75162598374000E-06 2.82242813739000E-06 2.89502265608000E-06 
2.96945491377000E-06 3.04577143303000E-06 3.12401991418000E-06 3.20424926505000E-06 
3.28650963161000E-06 3.37085242927000E-06 3.45733037501000E-06 3.54599752038000E-06 
3.63690928521000E-06 3.73012249233000E-06 3.82569540302000E-06 3.92368775347000E-06 
4.02416079207000E-06 4.12717731776000E-06 4.23280171921000E-06 4.34110001512000E-06 
4.45213989544000E-06 4.56599076371000E-06 4.68272378043000E-06 4.80241190754000E-06 
4.92512995402000E-06 5.05095462263000E-06 5.17996455789000E-06 5.31224039522000E-06 
5.44786481130000E-06 5.58692257583000E-06 5.72950060442000E-06 5.87568801300000E-06 
6.02557617344000E-06 6.17925877072000E-06 6.33683186148000E-06 6.49839393403000E-06 
6.66404596991000E-06 6.83389150705000E-06 7.00803670443000E-06 7.18659040846000E-06 
7.36966422104000E-06 7.55737256925000E-06 7.74983277692000E-06 7.94716513793000E-06 
8.14949299146000E-06 8.35694279898000E-06 8.56964422337000E-06 8.78773020997000E-06 
9.01133706960000E-06 9.24060456383000E-06 9.47567599231000E-06 9.71669828233000E-06 
9.96382208067000E-06 1.02172018478000E-05 1.04769959542000E-05 1.07433667797000E-05 
1.10164808148000E-05 1.12965087646000E-05 1.15836256557000E-05 1.18780109455000E-05 
1.21798486345000E-05 1.24893273808000E-05 1.28066406190000E-05 1.31319866800000E-05 
1.34655689157000E-05 1.38075958260000E-05 1.41582811887000E-05 1.45178441936000E-05 
1.48865095794000E-05 1.52645077738000E-05 1.56520750381000E-05 1.60494536144000E-05 
1.64568918772000E-05 1.68746444887000E-05 1.73029725580000E-05 1.77421438040000E-05 
1.81924327230000E-05 1.86541207602000E-05 1.91274964857000E-05 1.96128557748000E-05 
2.01105019928000E-05 2.06207461848000E-05 2.11439072700000E-05 2.16803122411000E-05 
2.22302963688000E-05 2.27942034109000E-05 2.33723858277000E-05 2.39652050021000E-05 
2.45730314653000E-05 2.51962451288000E-05 2.58352355212000E-05 2.64904020324000E-05 
2.71621541628000E-05 2.78509117794000E-05 2.85571053780000E-05 2.92811763527000E-05 
3.00235772714000E-05 3.07847721588000E-05 3.15652367866000E-05 3.23654589704000E-05 
3.31859388753000E-05 3.40271893279000E-05 3.48897361371000E-05 3.57741184227000E-05 
3.66808889524000E-05 3.76106144874000E-05 3.85638761364000E-05 3.95412697189000E-05 
4.05434061378000E-05 4.15709117609000E-05 4.26244288126000E-05 4.37046157755000E-05 
4.48121478016000E-05 4.59477171344000E-05 4.71120335417000E-05 4.83058247592000E-05 
4.95298369452000E-05 5.07848351472000E-05 5.20716037800000E-05 5.33909471158000E-05 
5.47436897872000E-05 5.61306773024000E-05 5.75527765736000E-05 5.90108764593000E-05 
6.05058883194000E-05 6.20387465848000E-05 6.36104093421000E-05 6.52218589314000E-05 
6.68741025613000E-05 6.85681729378000E-05 7.03051289101000E-05 7.20860561322000E-05 
7.39120677415000E-05 7.57843050548000E-05 7.77039382814000E-05 7.96721672544000E-05 
8.16902221811000E-05 8.37593644116000E-05 8.58808872269000E-05 8.80561166480000E-05 
9.02864122641000E-05 9.25731680825000E-05 9.49178134001000E-05 9.73218136965000E-05 
9.97866715501000E-05 1.02313927577000E-04 1.04905161395000E-04 1.07561992610000E-04 
1.10286081827000E-04 1.13079131691000E-04 1.15942887949000E-04 1.18879140541000E-04 
1.21889724722000E-04 1.24976522204000E-04 1.28141462337000E-04 1.31386523310000E-04 
1.34713733394000E-04 1.38125172201000E-04 1.41622971993000E-04 1.45209319008000E-04 
1.48886454830000E-04 1.52656677789000E-04 1.56522344396000E-04 1.60485870820000E-04 
1.64549734392000E-04 1.68716475161000E-04 1.72988697474000E-04 1.77369071610000E-04 
1.81860335446000E-04 1.86465296166000E-04 1.91186832023000E-04 1.96027894128000E-04 
2.00991508305000E-04 2.06080776972000E-04 2.11298881089000E-04 2.16649082141000E-04 
2.22134724177000E-04 2.27759235902000E-04 2.33526132820000E-04 2.39439019428000E-04 
2.45501591473000E-04 2.51717638261000E-04 2.58091045021000E-04 2.64625795343000E-04 
2.71325973656000E-04 2.78195767791000E-04 2.85239471592000E-04 2.92461487604000E-04 
2.99866329821000E-04 3.07458626512000E-04 3.15243123109000E-04 3.23224685175000E-04 
3.31408301447000E-04 3.39799086951000E-04 3.48402286202000E-04 3.57223276478000E-04 
3.66267571187000E-04 3.75540823306000E-04 3.85048828920000E-04 3.94797530842000E-04 
4.04793022328000E-04 4.15041550886000E-04 4.25549522179000E-04 4.36323504033000E-04 
4.47370230535000E-04 4.58696606250000E-04 4.70309710532000E-04 4.82216801948000E-04 
4.94425322819000E-04 5.06942903866000E-04 5.19777368987000E-04 5.32936740139000E-04 
5.46429242358000E-04 5.60263308896000E-04 5.74447586497000E-04 5.88990940794000E-04 
6.03902461858000E-04 6.19191469875000E-04 6.34867520973000E-04 6.50940413194000E-04 
6.67420192618000E-04 6.84317159645000E-04 7.01641875429000E-04 7.19405168480000E-04 
7.37618141437000E-04 7.56292177998000E-04 7.75438950046000E-04 7.95070424936000E-04 
8.15198872979000E-04 8.35836875110000E-04 8.56997330753000E-04 8.78693465880000E-04 
9.00938841283000E-04 9.23747361045000E-04 9.47133281235000E-04 9.71111218812000E-04 
9.95696160769000E-04 1.02090347349000E-03 1.04674891238000E-03 1.07324863167000E-03 
1.10041919454000E-03 1.12827758349000E-03 1.15684121091000E-03 1.18612793000000E-03 
1.21615604592000E-03 1.24694432721000E-03 1.27851201755000E-03 1.31087884777000E-03 
1.34406504821000E-03 1.37809136131000E-03 1.41297905462000E-03 1.44874993410000E-03 
1.48542635770000E-03 1.52303124938000E-03 1.56158811343000E-03 1.60112104915000E-03 
1.64165476589000E-03 1.68321459856000E-03 1.72582652340000E-03 1.76951717425000E-03 
1.81431385920000E-03 1.86024457763000E-03 1.90733803772000E-03 1.95562367444000E-03 
2.00513166787000E-03 2.05589296212000E-03 2.10793928465000E-03 2.16130316611000E-03 
2.21601796066000E-03 2.27211786683000E-03 2.32963794888000E-03 2.38861415875000E-03 
2.44908335847000E-03 2.51108334328000E-03 2.57465286517000E-03 2.63983165717000E-03 
2.70666045814000E-03 2.77518103827000E-03 2.84543622514000E-03 2.91746993054000E-03 
2.99132717786000E-03 3.06705413031000E-03 3.14469811968000E-03 3.22430767601000E-03 
3.30593255784000E-03 3.38962378340000E-03 3.47543366242000E-03 3.56341582887000E-03 
3.65362527447000E-03 3.74611838305000E-03 3.84095296583000E-03 3.93818829750000E-03 
4.03788515330000E-03 4.14010584703000E-03 4.24491426995000E-03 4.35237593072000E-03 
4.46255799638000E-03 4.57552933432000E-03 4.69136055529000E-03 4.81012405758000E-03 
4.93189407224000E-03 5.05674670951000E-03 5.18476000633000E-03 5.31601397519000E-03 
5.45059065409000E-03 5.58857415784000E-03 5.73005073062000E-03 5.87510879988000E-03 
6.02383903166000E-03 6.17633438717000E-03 6.33269018099000E-03 6.49300414058000E-03 
6.65737646737000E-03 6.82590989943000E-03 6.99870977563000E-03 7.17588410153000E-03 
7.35754361684000E-03 7.54380186468000E-03 7.73477526250000E-03 7.93058317491000E-03 
8.13134798822000E-03 8.33719518698000E-03 8.54825343239000E-03 8.76465464271000E-03 
8.98653407576000E-03 9.21403041339000E-03 9.44728584823000E-03 9.68644617252000E-03 
9.93166086924000E-03 1.01830832056000E-02 1.04408703286000E-02 1.07051833638000E-02 
1.09761875153000E-02 1.12540521696000E-02 1.15389510010000E-02 1.18310620807000E-02 
1.21305679877000E-02 1.24376559227000E-02 1.27525178258000E-02 1.30753504960000E-02 
1.34063557141000E-02 1.37457403692000E-02 1.40937165878000E-02 1.44505018663000E-02 
1.48163192070000E-02 1.51913972579000E-02 1.55759704548000E-02 1.59702791686000E-02 
1.63745698550000E-02 1.67890952088000E-02 1.72141143219000E-02 1.76498928451000E-02 
1.80967031541000E-02 1.85548245200000E-02 1.90245432834000E-02 1.95061530340000E-02 
1.99999547934000E-02 2.05062572039000E-02 2.10253767209000E-02 2.15576378111000E-02 
2.21033731549000E-02 2.26629238547000E-02 2.32366396480000E-02 2.38248791257000E-02 
2.44280099566000E-02 2.50464091172000E-02 2.56804631272000E-02 2.63305682908000E-02 
2.69971309449000E-02 2.76805677130000E-02 2.83813057653000E-02 2.90997830858000E-02 
2.98364487462000E-02 3.05917631867000E-02 3.13661985032000E-02 3.21602387431000E-02 
3.29743802074000E-02 3.38091317610000E-02 3.46650151508000E-02 3.55425653317000E-02 
3.64423308012000E-02 3.73648739421000E-02 3.83107713737000E-02 3.92806143128000E-02 
4.02750089428000E-02 4.12945767927000E-02 4.23399551257000E-02 4.34117973371000E-02 
4.45107733633000E-02 4.56375701000000E-02 4.67928918319000E-02 4.79774606728000E-02 
4.91920170166000E-02 5.04373200006000E-02 5.17141479797000E-02 5.30232990131000E-02 
5.43655913626000E-02 5.57418640047000E-02 5.71529771547000E-02 5.85998128041000E-02 
6.00832752723000E-02 6.16042917718000E-02 6.31638129872000E-02 6.47628136702000E-02 
6.64022932481000E-02 6.80832764492000E-02 6.98068139426000E-02 7.15739829954000E-02 
7.33858881458000E-02 7.52436618934000E-02 7.71484654074000E-02 7.91014892518000E-02 
8.11039541303000E-02 8.31571116485000E-02 8.52622450968000E-02 8.74206702520000E-02 
8.96337362002000E-02 9.19028261795000E-02 9.42293584452000E-02 9.66147871556000E-02 
9.90606032813000E-02 1.01568335537000E-01 1.04139551337000E-01 1.06775857775000E-01 
1.09478902628000E-01 1.12250375387000E-01 1.15092008314000E-01 1.18005577520000E-01 
1.20992904082000E-01 1.24055855176000E-01 1.27196345245000E-01 1.30416337200000E-01 
1.33717843639000E-01 1.37102928111000E-01 1.40573706405000E-01 1.44132347870000E-01 
1.47781076772000E-01 1.51522173686000E-01 1.55357976920000E-01 1.59290883974000E-01 
1.63323353045000E-01 1.67457904556000E-01 1.71697122737000E-01 1.76043657237000E-01 
1.80500224782000E-01 1.85069610872000E-01 1.89754671521000E-01 1.94558335045000E-01 
1.99483603890000E-01 2.04533556509000E-01 2.09711349288000E-01 2.15020218515000E-01 
2.20463482406000E-01 2.26044543179000E-01 2.31766889178000E-01 2.37634097055000E-01 
2.43649834007000E-01 2.49817860066000E-01 2.56142030447000E-01 2.62626297963000E-01 
2.69274715493000E-01 2.76091438515000E-01 2.83080727701000E-01 2.90246951585000E-01 
2.97594589291000E-01 3.05128233331000E-01 3.12852592477000E-01 3.20772494707000E-01 
3.28892890215000E-01 3.37218854515000E-01 3.45755591605000E-01 3.54508437223000E-01 
3.63482862182000E-01 3.72684475791000E-01 3.82119029358000E-01 3.91792419785000E-01 
4.01710693257000E-01 4.11880049017000E-01 4.22306843244000E-01 4.32997593024000E-01 
4.43958980422000E-01 4.55197856664000E-01 4.66721246412000E-01 4.78536352161000E-01 
4.90650558736000E-01 5.03071437910000E-01 5.15806753137000E-01 5.28864464405000E-01 
5.42252733207000E-01 5.55979927647000E-01 5.70054627669000E-01 5.84485630418000E-01 
5.99281955741000E-01 6.14452851823000E-01 6.30007800968000E-01 6.45956525526000E-01 
6.62308993967000E-01 6.79075427118000E-01 6.96266304545000E-01 7.13892371107000E-01 
7.31964643667000E-01 7.50494417985000E-01 7.69493275774000E-01 7.88973091937000E-01 
8.08946041995000E-01 8.29424609690000E-01 8.50421594795000E-01 8.71950121108000E-01 
8.94023644659000E-01 9.16655962120000E-01 9.39861219425000E-01 9.63653920615000E-01 
9.88048936904000E-01 1.01306151597000E+00 1.03870729149000E+00 1.06500229291000E+00 
1.09196295546000E+00 1.11960613043000E+00 1.14794909570000E+00 1.17700956656000E+00 
1.20680570674000E+00 1.23735613980000E+00 1.26867996076000E+00 1.30079674801000E+00 
1.33372657561000E+00 1.36749002576000E+00 1.40210820173000E+00 1.43760274099000E+00 
1.47399582879000E+00 1.51131021199000E+00 1.54956921330000E+00 1.58879674584000E+00 
1.62901732809000E+00 1.67025609923000E+00 1.71253883484000E+00 1.75589196299000E+00 
1.80034258080000E+00 1.84591847137000E+00 1.89264812109000E+00 1.94056073753000E+00 
1.98968626763000E+00 2.04005541645000E+00 2.09169966634000E+00 2.14465129663000E+00 
2.19894340384000E+00 2.25460992227000E+00 2.31168564534000E+00 2.37020624721000E+00 
2.43020830517000E+00 2.49172932246000E+00 2.55480775171000E+00 2.61948301901000E+00 
2.68579554849000E+00 2.75378678765000E+00 2.82349923322000E+00 2.89497645776000E+00 
2.96826313684000E+00 3.04340507705000E+00 3.12044924452000E+00 3.19944379438000E+00 
3.28043810079000E+00 3.36348278783000E+00 3.44862976113000E+00 3.53593224032000E+00 
3.62544479230000E+00 3.71722336531000E+00 3.81132532397000E+00 3.90780948504000E+00 
4.00673615429000E+00 4.10816716409000E+00 4.21216591213000E+00 4.31879740101000E+00 
4.42812827888000E+00 4.54022688110000E+00 4.65516327295000E+00 4.77300929341000E+00 
4.89383860008000E+00 5.01772671521000E+00 5.14475107291000E+00 5.27499106753000E+00 
5.40852810332000E+00 5.54544564526000E+00 5.68582927127000E+00 5.82976672570000E+00 
5.97734797413000E+00 6.12866525966000E+00 6.28381316051000E+00 6.44288864916000E+00 
6.60599115299000E+00 6.77322261635000E+00 6.94468756437000E+00 7.12049316821000E+00 
7.30074931210000E+00 7.48556866200000E+00 7.67506673602000E+00 7.86936197662000E+00 
8.06857582465000E+00 8.27283279525000E+00 8.48226055569000E+00 8.69699000512000E+00 
8.91715535644000E+00 9.14289422017000E+00 9.37434769044000E+00 9.61166043321000E+00 
9.85498077666000E+00 1.01044608039000E+01 1.03602564482000E+01 1.06225275900000E+01 
1.08914381573000E+01 1.11671562281000E+01 1.14498541351000E+01 1.17397085736000E+01 
1.20369007122000E+01 1.23416163057000E+01 1.26540458110000E+01 1.29743845070000E+01 
1.33028326157000E+01 1.36395954278000E+01 1.39848834311000E+01 1.43389124418000E+01 
1.47019037396000E+01 1.50740842059000E+01 1.54556864655000E+01 1.58469490323000E+01 
1.62481164581000E+01 1.66594394857000E+01 1.70811752053000E+01 1.75135872155000E+01 
1.79569457878000E+01 1.84115280358000E+01 1.88776180882000E+01 1.93555072665000E+01 
1.98454942669000E+01 2.03478853473000E+01 2.08629945184000E+01 2.13911437403000E+01 
2.19326631234000E+01 2.24878911349000E+01 2.30571748105000E+01 2.36408699709000E+01 
2.42393414446000E+01 2.48529632959000E+01 2.54821190583000E+01 2.61272019746000E+01 
2.67886152427000E+01 2.74667722674000E+01 2.81620969189000E+01 2.88750237978000E+01 
2.96059985065000E+01 3.03554779281000E+01 3.11239305115000E+01 3.19118365648000E+01 
3.27196885547000E+01 3.35479914151000E+01 3.43972628623000E+01 3.52680337185000E+01 
3.61608482439000E+01 3.70762644766000E+01 3.80148545816000E+01 3.89772052082000E+01 
3.99639178569000E+01 4.09756092552000E+01 4.20129117432000E+01 4.30764736687000E+01 
4.41669597925000E+01 4.52850517040000E+01 4.64314482470000E+01 4.76068659567000E+01 
4.88120395073000E+01 5.00477221716000E+01 5.13146862915000E+01 5.26137237608000E+01 
5.39456465202000E+01 5.53112870647000E+01 5.67114989643000E+01 5.81471573968000E+01 
5.96191596956000E+01 6.11284259100000E+01 6.26758993806000E+01 6.42625473285000E+01 
6.58893614605000E+01 6.75573585883000E+01 6.92675812644000E+01 7.10210984337000E+01 
7.28190061014000E+01 7.46624280185000E+01 7.65525163836000E+01 7.84904525634000E+01 
8.04774478312000E+01 8.25147441237000E+01 8.46036148174000E+01 8.67453655245000E+01 
8.89413349088000E+01 9.11928955228000E+01 9.35014546650000E+01 9.58684552602000E+01 
9.82953767608000E+01 1.00783736072000E+02 1.03335088498000E+02 1.05951028719000E+02 
1.08633191782000E+02 1.11383254126000E+02 1.14202934630000E+02 1.17093995685000E+02 
1.20058244300000E+02 1.23097533226000E+02 1.26213762117000E+02 1.29408878718000E+02 
1.32684880080000E+02 1.36043813812000E+02 1.39487779357000E+02 1.43018929304000E+02 
1.46639470738000E+02 1.50351666614000E+02 1.54157837177000E+02 1.58060361406000E+02 
1.62061678506000E+02 1.66164289431000E+02 1.70370758446000E+02 1.74683714731000E+02 
1.79105854024000E+02 1.83639940307000E+02 1.88288807530000E+02 1.93055361387000E+02 
1.97942581130000E+02 2.02953521429000E+02 2.08091314286000E+02 
</PP_R>
    <PP_RAB>
1.13016470349000E-09 1.15877495917000E-09 1.18810948692000E-09 1.21818662178000E-09 
1.24902516293000E-09 1.28064438547000E-09 1.31306405244000E-09 1.34630442718000E-09 
1.38038628602000E-09 1.41533093122000E-09 1.45116020433000E-09 1.48789649980000E-09 
1.52556277902000E-09 1.56418258464000E-09 1.60378005529000E-09 1.64437994068000E-09 
1.68600761707000E-09 1.72868910310000E-09 1.77245107610000E-09 1.81732088871000E-09 
1.86332658604000E-09 1.91049692314000E-09 1.95886138301000E-09 2.00845019501000E-09 
2.05929435377000E-09 2.11142563853000E-09 2.16487663305000E-09 2.21968074593000E-09 
2.27587223154000E-09 2.33348621138000E-09 2.39255869606000E-09 2.45312660782000E-09 
2.51522780356000E-09 2.57890109855000E-09 2.64418629068000E-09 2.71112418532000E-09 
2.77975662083000E-09 2.85012649471000E-09 2.92227779043000E-09 2.99625560490000E-09 
3.07210617666000E-09 3.14987691479000E-09 3.22961642853000E-09 3.31137455766000E-09 
3.39520240369000E-09 3.48115236174000E-09 3.56927815335000E-09 3.65963485998000E-09 
3.75227895754000E-09 3.84726835159000E-09 3.94466241360000E-09 4.04452201803000E-09 
4.14690958038000E-09 4.25188909621000E-09 4.35952618114000E-09 4.46988811184000E-09 
4.58304386812000E-09 4.69906417601000E-09 4.81802155198000E-09 4.93999034826000E-09 
5.06504679932000E-09 5.19326906950000E-09 5.32473730191000E-09 5.45953366847000E-09 
5.59774242130000E-09 5.73944994536000E-09 5.88474481247000E-09 6.03371783665000E-09 
6.18646213089000E-09 6.34307316536000E-09 6.50364882703000E-09 6.66828948094000E-09 
6.83709803284000E-09 7.01017999358000E-09 7.18764354501000E-09 7.36959960764000E-09 
7.55616190993000E-09 7.74744705938000E-09 7.94357461544000E-09 8.14466716423000E-09 
8.35085039512000E-09 8.56225317936000E-09 8.77900765055000E-09 9.00124928731000E-09 
9.22911699789000E-09 9.46275320703000E-09 9.70230394495000E-09 9.94791893869000E-09 
1.01997517056000E-08 1.04579596493000E-08 1.07227041583000E-08 1.09941507064000E-08 
1.12724689566000E-08 1.15578328669000E-08 1.18504207989000E-08 1.21504156297000E-08 
1.24580048658000E-08 1.27733807604000E-08 1.30967404339000E-08 1.34282859964000E-08 
1.37682246749000E-08 1.41167689419000E-08 1.44741366491000E-08 1.48405511629000E-08 
1.52162415042000E-08 1.56014424918000E-08 1.59963948888000E-08 1.64013455534000E-08 
1.68165475929000E-08 1.72422605220000E-08 1.76787504252000E-08 1.81262901229000E-08 
1.85851593421000E-08 1.90556448908000E-08 1.95380408379000E-08 2.00326486965000E-08 
2.05397776127000E-08 2.10597445585000E-08 2.15928745302000E-08 2.21395007514000E-08 
2.26999648812000E-08 2.32746172281000E-08 2.38638169684000E-08 2.44679323711000E-08 
2.50873410281000E-08 2.57224300899000E-08 2.63735965078000E-08 2.70412472820000E-08 
2.77257997161000E-08 2.84276816775000E-08 2.91473318654000E-08 2.98852000846000E-08 
3.06417475266000E-08 3.14174470583000E-08 3.22127835172000E-08 3.30282540143000E-08 
3.38643682454000E-08 3.47216488090000E-08 3.56006315335000E-08 3.65018658115000E-08 
3.74259149439000E-08 3.83733564914000E-08 3.93447826359000E-08 4.03408005503000E-08 
4.13620327783000E-08 4.24091176232000E-08 4.34827095472000E-08 4.45834795801000E-08 
4.57121157391000E-08 4.68693234584000E-08 4.80558260307000E-08 4.92723650586000E-08 
5.05197009185000E-08 5.17986132362000E-08 5.31099013732000E-08 5.44543849275000E-08 
5.58329042451000E-08 5.72463209452000E-08 5.86955184596000E-08 6.01814025836000E-08 
6.17049020433000E-08 6.32669690755000E-08 6.48685800229000E-08 6.65107359444000E-08 
6.81944632410000E-08 6.99208142971000E-08 7.16908681381000E-08 7.35057311056000E-08 
7.53665375477000E-08 7.72744505293000E-08 7.92306625579000E-08 8.12363963298000E-08 
8.32929054938000E-08 8.54014754352000E-08 8.75634240788000E-08 8.97801027129000E-08 
9.20528968338000E-08 9.43832270118000E-08 9.67725497790000E-08 9.92223585402000E-08 
1.01734184505000E-07 1.04309597648000E-07 1.06950207684000E-07 1.09657665081000E-07 
1.12433662089000E-07 1.15279933796000E-07 1.18198259214000E-07 1.21190462392000E-07 
1.24258413554000E-07 1.27404030269000E-07 1.30629278651000E-07 1.33936174584000E-07 
1.37326784986000E-07 1.40803229099000E-07 1.44367679814000E-07 1.48022365028000E-07 
1.51769569039000E-07 1.55611633972000E-07 1.59550961241000E-07 1.63590013054000E-07 
1.67731313951000E-07 1.71977452380000E-07 1.76331082314000E-07 1.80794924915000E-07 
1.85371770230000E-07 1.90064478935000E-07 1.94875984126000E-07 1.99809293152000E-07 
2.04867489490000E-07 2.10053734678000E-07 2.15371270288000E-07 2.20823419953000E-07 
2.26413591443000E-07 2.32145278799000E-07 2.38022064511000E-07 2.44047621762000E-07 
2.50225716720000E-07 2.56560210897000E-07 2.63055063558000E-07 2.69714334197000E-07 
2.76542185074000E-07 2.83542883819000E-07 2.90720806097000E-07 2.98080438342000E-07 
3.05626380565000E-07 3.13363349224000E-07 3.21296180178000E-07 3.29429831703000E-07 
3.37769387597000E-07 3.46320060353000E-07 3.55087194421000E-07 3.64076269545000E-07 
3.73292904188000E-07 3.82742859049000E-07 3.92432040655000E-07 4.02366505062000E-07 
4.12552461633000E-07 4.22996276922000E-07 4.33704478654000E-07 4.44683759803000E-07 
4.55940982777000E-07 4.67483183708000E-07 4.79317576847000E-07 4.91451559074000E-07 
5.03892714524000E-07 5.16648819324000E-07 5.29727846454000E-07 5.43137970732000E-07 
5.56887573922000E-07 5.70985249975000E-07 5.85439810396000E-07 6.00260289756000E-07 
6.15455951337000E-07 6.31036292922000E-07 6.47011052733000E-07 6.63390215513000E-07 
6.80184018774000E-07 6.97402959188000E-07 7.15057799154000E-07 7.33159573521000E-07 
7.51719596489000E-07 7.70749468674000E-07 7.90261084368000E-07 8.10266638965000E-07 
8.30778636587000E-07 8.51809897901000E-07 8.73373568131000E-07 8.95483125271000E-07 
9.18152388514000E-07 9.41395526889000E-07 9.65227068114000E-07 9.89661907677000E-07 
1.01471531815000E-06 1.04040295872000E-06 1.06674088502000E-06 1.09374555909000E-06 
1.12143385974000E-06 1.14982309306000E-06 1.17893100325000E-06 1.20877578368000E-06 
1.23937608833000E-06 1.27075104338000E-06 1.30292025920000E-06 1.33590384260000E-06 
1.36972240938000E-06 1.40439709726000E-06 1.43994957904000E-06 1.47640207619000E-06 
1.51377737269000E-06 1.55209882932000E-06 1.59139039825000E-06 1.63167663799000E-06 
1.67298272874000E-06 1.71533448815000E-06 1.75875838746000E-06 1.80328156801000E-06 
1.84893185824000E-06 1.89573779107000E-06 1.94372862174000E-06 1.99293434606000E-06 
2.04338571923000E-06 2.09511427499000E-06 2.14815234538000E-06 2.20253308090000E-06 
2.25829047131000E-06 2.31545936677000E-06 2.37407549971000E-06 2.43417550711000E-06 
2.49579695346000E-06 2.55897835414000E-06 2.62375919959000E-06 2.69017997996000E-06 
2.75828221038000E-06 2.82810845698000E-06 2.89970236342000E-06 2.97310867824000E-06 
3.04837328276000E-06 3.12554321981000E-06 3.20466672313000E-06 3.28579324746000E-06 
3.36897349954000E-06 3.45425946973000E-06 3.54170446453000E-06 3.63136313991000E-06 
3.72329153546000E-06 3.81754710943000E-06 3.91418877461000E-06 4.01327693520000E-06 
4.11487352451000E-06 4.21904204373000E-06 4.32584760156000E-06 4.43535695496000E-06 
4.54763855085000E-06 4.66276256886000E-06 4.78080096527000E-06 4.90182751791000E-06 
5.02591787232000E-06 5.15314958900000E-06 5.28360219193000E-06 5.41735721822000E-06 
5.55449826912000E-06 5.69511106226000E-06 5.83928348520000E-06 5.98710565040000E-06 
6.13866995153000E-06 6.29407112122000E-06 6.45340629024000E-06 6.61677504827000E-06 
6.78427950610000E-06 6.95602435947000E-06 7.13211695450000E-06 7.31266735480000E-06 
7.49778841024000E-06 7.68759582751000E-06 7.88220824243000E-06 8.08174729408000E-06 
8.28633770088000E-06 8.49610733848000E-06 8.71118731975000E-06 8.93171207666000E-06 
9.15781944437000E-06 9.38965074734000E-06 9.62735088769000E-06 9.87106843575000E-06 
1.01209557229000E-05 1.03771689368000E-05 1.06398682192000E-05 1.09092177655000E-05 
1.11853859281000E-05 1.14685453210000E-05 1.17588729280000E-05 1.20565502134000E-05 
1.23617632352000E-05 1.26747027614000E-05 1.29955643894000E-05 1.33245486682000E-05 
1.36618612236000E-05 1.40077128871000E-05 1.43623198271000E-05 1.47259036846000E-05 
1.50986917112000E-05 1.54809169116000E-05 1.58728181890000E-05 1.62746404946000E-05 
1.66866349802000E-05 1.71090591558000E-05 1.75421770504000E-05 1.79862593767000E-05 
1.84415837006000E-05 1.89084346147000E-05 1.93871039159000E-05 1.98778907881000E-05 
2.03811019892000E-05 2.08970520425000E-05 2.14260634335000E-05 2.19684668117000E-05 
2.25246011968000E-05 2.30948141908000E-05 2.36794621956000E-05 2.42789106350000E-05 
2.48935341839000E-05 2.55237170021000E-05 2.61698529742000E-05 2.68323459564000E-05 
2.75116100282000E-05 2.82080697519000E-05 2.89221604374000E-05 2.96543284147000E-05 
3.04050313126000E-05 3.11747383448000E-05 3.19639306034000E-05 3.27731013590000E-05 
3.36027563699000E-05 3.44534141973000E-05 3.53256065302000E-05 3.62198785171000E-05 
3.71367891072000E-05 3.80769113993000E-05 3.90408330006000E-05 4.00291563934000E-05 
4.10424993119000E-05 4.20814951287000E-05 4.31467932497000E-05 4.42390595210000E-05 
4.53589766447000E-05 4.65072446053000E-05 4.76845811078000E-05 4.88917220257000E-05 
5.01294218614000E-05 5.13984542176000E-05 5.26996122809000E-05 5.40337093174000E-05 
5.54015791812000E-05 5.68040768354000E-05 5.82420788867000E-05 5.97164841334000E-05 
6.12282141265000E-05 6.27782137466000E-05 6.43674517939000E-05 6.59969215939000E-05 
6.76676416183000E-05 6.93806561215000E-05 7.11370357933000E-05 7.29378784281000E-05 
7.47843096113000E-05 7.66774834225000E-05 7.86185831568000E-05 8.06088220649000E-05 
8.26494441108000E-05 8.47417247497000E-05 8.68869717252000E-05 8.90865258864000E-05 
9.13417620264000E-05 9.36540897410000E-05 9.60249543104000E-05 9.84558376021000E-05 
1.00948258997000E-04 1.03503776341000E-04 1.06123986913000E-04 1.08810528433000E-04 