<UPF version="2.0.1">
  <PP_INFO>
Generated using Vanderbilt code, version   7  3  6
Author: kfg        Generation date:   13    5 2013
Automatically converted from original USPP format to UPF.v1.

Futher converted to UPF.v2 format.
Convert Q_IJ to Q_IJL use the same routine as 'upflib/upf_to_internal.f90' of QE.
The conversion is done by using PseudoPotentialIO.jl package.
Converted by: JYU on 2024-04-30

1        The Pseudo was generated with a Scalar-Relativistic Calculation
2.00000000000E+00    Local Potential cutoff radius
nl pn  l   occ               Rcut            Rcut US             E pseu
5S  5  0  2.00      0.00000000000      1.40000000000     -5.36479206400
5P  5  1  6.00      0.00000000000      1.50000000000     -2.89585620000
5D  5  2  3.00      0.00000000000      1.70000000000     -0.26397349800
6S  6  0  2.00      0.00000000000      1.40000000000     -0.39996405300
6P  6  1  0.00      0.00000000000      1.50000000000     -0.10225719600
</PP_INFO>
  <PP_HEADER element="Ta" pseudo_type="US" relativistic="scalar" is_ultrasoft="T" is_paw="F" is_coulomb="F" has_so="F" has_wfc="F" has_gipaw="F" core_correction="T" functional="PBE" z_valence="13.0" total_psenergy="-141.166386597" wfc_cutoff="0.0" rho_cutoff="0.0" l_max="3" mesh_size="921" number_of_wfc="5" number_of_proj="7"/>
  <PP_MESH>
    <PP_R>
0.00000000000000E+00 5.80422042191000E-07 1.17076558915000E-06 1.77120023515000E-06 
2.38189847345000E-06 3.00303574583000E-06 3.63479049302000E-06 4.27734420593000E-06 
4.93088147780000E-06 5.59559005725000E-06 6.27166090219000E-06 6.95928823469000E-06 
7.65866959678000E-06 8.37000590718000E-06 9.09350151906000E-06 9.82936427871000E-06 
1.05778055852000E-05 1.13390404514000E-05 1.21132875652000E-05 1.29007693528000E-05 
1.37017120426000E-05 1.45163457299000E-05 1.53449044431000E-05 1.61876262112000E-05 
1.70447531318000E-05 1.79165314409000E-05 1.88032115835000E-05 1.97050482857000E-05 
2.06223006277000E-05 2.15552321184000E-05 2.25041107709000E-05 2.34692091796000E-05 
2.44508045988000E-05 2.54491790217000E-05 2.64646192621000E-05 2.74974170362000E-05 
2.85478690468000E-05 2.96162770686000E-05 3.07029480344000E-05 3.18081941238000E-05 
3.29323328526000E-05 3.40756871641000E-05 3.52385855218000E-05 3.64213620041000E-05 
3.76243563996000E-05 3.88479143054000E-05 4.00923872259000E-05 4.13581326743000E-05 
4.26455142745000E-05 4.39549018666000E-05 4.52866716121000E-05 4.66412061029000E-05 
4.80188944703000E-05 4.94201324976000E-05 5.08453227334000E-05 5.22948746073000E-05 
5.37692045475000E-05 5.52687361004000E-05 5.67939000524000E-05 5.83451345537000E-05 
5.99228852438000E-05 6.15276053801000E-05 6.31597559675000E-05 6.48198058913000E-05 
6.65082320518000E-05 6.82255195011000E-05 6.99721615827000E-05 7.17486600731000E-05 
7.35555253258000E-05 7.53932764184000E-05 7.72624413011000E-05 7.91635569488000E-05 
8.10971695153000E-05 8.30638344900000E-05 8.50641168578000E-05 8.70985912610000E-05 
8.91678421649000E-05 9.12724640250000E-05 9.34130614586000E-05 9.55902494179000E-05 
9.78046533669000E-05 1.00056909461000E-04 1.02347664729000E-04 1.04677577262000E-04 
1.07047316398000E-04 1.09457562918000E-04 1.11909009238000E-04 1.14402359611000E-04 
1.16938330329000E-04 1.19517649928000E-04 1.22141059395000E-04 1.24809312386000E-04 
1.27523175438000E-04 1.30283428191000E-04 1.33090863613000E-04 1.35946288225000E-04 
1.38850522336000E-04 1.41804400276000E-04 1.44808770636000E-04 1.47864496516000E-04 
1.50972455764000E-04 1.54133541238000E-04 1.57348661057000E-04 1.60618738862000E-04 
1.63944714083000E-04 1.67327542209000E-04 1.70768195061000E-04 1.74267661071000E-04 
1.77826945569000E-04 1.81447071068000E-04 1.85129077560000E-04 1.88874022815000E-04 
1.92682982682000E-04 1.96557051402000E-04 2.00497341920000E-04 2.04504986206000E-04 
2.08581135577000E-04 2.12726961034000E-04 2.16943653590000E-04 2.21232424621000E-04 
2.25594506207000E-04 2.30031151490000E-04 2.34543635032000E-04 2.39133253183000E-04 
2.43801324451000E-04 2.48549189882000E-04 2.53378213447000E-04 2.58289782430000E-04 
2.63285307830000E-04 2.68366224765000E-04 2.73533992884000E-04 2.78790096787000E-04 
2.84136046450000E-04 2.89573377662000E-04 2.95103652463000E-04 3.00728459593000E-04 
3.06449414952000E-04 3.12268162057000E-04 3.18186372524000E-04 3.24205746540000E-04 
3.30328013353000E-04 3.36554931773000E-04 3.42888290673000E-04 3.49329909505000E-04 
3.55881638821000E-04 3.62545360805000E-04 3.69322989817000E-04 3.76216472938000E-04 
3.83227790532000E-04 3.90358956816000E-04 3.97612020434000E-04 4.04989065053000E-04 
4.12492209954000E-04 4.20123610646000E-04 4.27885459482000E-04 4.35779986291000E-04 
4.43809459019000E-04 4.51976184376000E-04 4.60282508506000E-04 4.68730817655000E-04 
4.77323538858000E-04 4.86063140638000E-04 4.94952133713000E-04 5.03993071719000E-04 
5.13188551942000E-04 5.22541216067000E-04 5.32053750932000E-04 5.41728889305000E-04 
5.51569410666000E-04 5.61578142006000E-04 5.71757958639000E-04 5.82111785031000E-04 
5.92642595636000E-04 6.03353415750000E-04 6.14247322386000E-04 6.25327445153000E-04 
6.36596967154000E-04 6.48059125907000E-04 6.59717214266000E-04 6.71574581376000E-04 
6.83634633628000E-04 6.95900835643000E-04 7.08376711261000E-04 7.21065844562000E-04 
7.33971880888000E-04 7.47098527893000E-04 7.60449556609000E-04 7.74028802527000E-04 
7.87840166704000E-04 8.01887616875000E-04 8.16175188603000E-04 8.30706986429000E-04 
8.45487185058000E-04 8.60520030556000E-04 8.75809841567000E-04 8.91361010558000E-04 
9.07178005081000E-04 9.23265369050000E-04 9.39627724054000E-04 9.56269770682000E-04 
9.73196289871000E-04 9.90412144282000E-04 1.00792227970000E-03 1.02573172644000E-03 
1.04384560082000E-03 1.06226910661000E-03 1.08100753651000E-03 1.10006627372000E-03 
1.11945079344000E-03 1.13916666448000E-03 1.15921955081000E-03 1.17961521325000E-03 
1.20035951108000E-03 1.22145840373000E-03 1.24291795250000E-03 1.26474432230000E-03 
1.28694378344000E-03 1.30952271338000E-03 1.33248759862000E-03 1.35584503653000E-03 
1.37960173723000E-03 1.40376452558000E-03 1.42834034308000E-03 1.45333624987000E-03 
1.47875942681000E-03 1.50461717748000E-03 1.53091693030000E-03 1.55766624070000E-03 
1.58487279323000E-03 1.61254440380000E-03 1.64068902194000E-03 1.66931473304000E-03 
1.69842976073000E-03 1.72804246918000E-03 1.75816136555000E-03 1.78879510242000E-03 
1.81995248027000E-03 1.85164245002000E-03 1.88387411556000E-03 1.91665673645000E-03 
1.94999973049000E-03 1.98391267648000E-03 2.01840531695000E-03 2.05348756097000E-03 
2.08916948699000E-03 2.12546134574000E-03 2.16237356317000E-03 2.19991674343000E-03 
2.23810167197000E-03 2.27693931857000E-03 2.31644084054000E-03 2.35661758589000E-03 
2.39748109664000E-03 2.43904311207000E-03 2.48131557215000E-03 2.52431062094000E-03 
2.56804061009000E-03 2.61251810237000E-03 2.65775587530000E-03 2.70376692483000E-03 
2.75056446904000E-03 2.79816195196000E-03 2.84657304742000E-03 2.89581166299000E-03 
2.94589194397000E-03 2.99682827747000E-03 3.04863529650000E-03 3.10132788422000E-03 
3.15492117819000E-03 3.20943057472000E-03 3.26487173331000E-03 3.32126058114000E-03 
3.37861331762000E-03 3.43694641909000E-03 3.49627664351000E-03 3.55662103533000E-03 
3.61799693030000E-03 3.68042196054000E-03 3.74391405955000E-03 3.80849146738000E-03 
3.87417273588000E-03 3.94097673399000E-03 4.00892265322000E-03 4.07803001311000E-03 
4.14831866688000E-03 4.21980880708000E-03 4.29252097145000E-03 4.36647604880000E-03 
4.44169528499000E-03 4.51820028904000E-03 4.59601303936000E-03 4.67515589005000E-03 
4.75565157732000E-03 4.83752322603000E-03 4.92079435630000E-03 5.00548889034000E-03 
5.09163115923000E-03 5.17924590999000E-03 5.26835831264000E-03 5.35899396745000E-03 
5.45117891228000E-03 5.54493963009000E-03 5.64030305651000E-03 5.73729658762000E-03 
5.83594808778000E-03 5.93628589765000E-03 6.03833884235000E-03 6.14213623972000E-03 
6.24770790873000E-03 6.35508417809000E-03 6.46429589491000E-03 6.57537443362000E-03 
6.68835170492000E-03 6.80326016501000E-03 6.92013282485000E-03 7.03900325970000E-03 
7.15990561874000E-03 7.28287463487000E-03 7.40794563472000E-03 7.53515454875000E-03 
7.66453792164000E-03 7.79613292272000E-03 7.92997735669000E-03 8.06610967446000E-03 
8.20456898422000E-03 8.34539506264000E-03 8.48862836633000E-03 8.63431004345000E-03 
8.78248194552000E-03 8.93318663947000E-03 9.08646741984000E-03 9.24236832123000E-03 
9.40093413095000E-03 9.56221040189000E-03 9.72624346560000E-03 9.89308044561000E-03 
1.00627692709000E-02 1.02353586899000E-02 1.04108982842000E-02 1.05894384828000E-02 
1.07710305769000E-02 1.09557267345000E-02 1.11435800151000E-02 1.13346443854000E-02 
1.15289747344000E-02 1.17266268895000E-02 1.19276576324000E-02 1.21321247153000E-02 
1.23400868776000E-02 1.25516038628000E-02 1.27667364357000E-02 1.29855463997000E-02 
1.32080966146000E-02 1.34344510149000E-02 1.36646746277000E-02 1.38988335919000E-02 
1.41369951768000E-02 1.43792278016000E-02 1.46256010551000E-02 1.48761857155000E-02 
1.51310537709000E-02 1.53902784401000E-02 1.56539341932000E-02 1.59220967734000E-02 
1.61948432187000E-02 1.64722518838000E-02 1.67544024629000E-02 1.70413760124000E-02 
1.73332549742000E-02 1.76301231995000E-02 1.79320659728000E-02 1.82391700364000E-02 
1.85515236154000E-02 1.88692164429000E-02 1.91923397859000E-02 1.95209864714000E-02 
1.98552509135000E-02 2.01952291396000E-02 2.05410188191000E-02 2.08927192905000E-02 
2.12504315906000E-02 2.16142584833000E-02 2.19843044890000E-02 2.23606759147000E-02 
2.27434808846000E-02 2.31328293713000E-02 2.35288332269000E-02 2.39316062158000E-02 
2.43412640469000E-02 2.47579244068000E-02 2.51817069941000E-02 2.56127335532000E-02 
2.60511279099000E-02 2.64970160063000E-02 2.69505259373000E-02 2.74117879877000E-02 
2.78809346692000E-02 2.83581007584000E-02 2.88434233359000E-02 2.93370418256000E-02 
2.98390980345000E-02 3.03497361936000E-02 3.08691029994000E-02 3.13973476559000E-02 
3.19346219175000E-02 3.24810801328000E-02 3.30368792887000E-02 3.36021790555000E-02 
3.41771418328000E-02 3.47619327964000E-02 3.53567199454000E-02 3.59616741506000E-02 
3.65769692036000E-02 3.72027818669000E-02 3.78392919242000E-02 3.84866822327000E-02 
3.91451387750000E-02 3.98148507129000E-02 4.04960104417000E-02 4.11888136455000E-02 
4.18934593531000E-02 4.26101499957000E-02 4.33390914646000E-02 4.40804931706000E-02 
4.48345681041000E-02 4.56015328962000E-02 4.63816078809000E-02 4.71750171589000E-02 
4.79819886612000E-02 4.88027542151000E-02 4.96375496106000E-02 5.04866146684000E-02 
5.13501933084000E-02 5.22285336201000E-02 5.31218879335000E-02 5.40305128921000E-02 
5.49546695263000E-02 5.58946233284000E-02 5.68506443290000E-02 5.78230071743000E-02 
5.88119912054000E-02 5.98178805383000E-02 6.08409641455000E-02 6.18815359391000E-02 
6.29398948554000E-02 6.40163449402000E-02 6.51111954369000E-02 6.62247608749000E-02 
6.73573611599000E-02 6.85093216661000E-02 6.96809733295000E-02 7.08726527429000E-02 
7.20847022527000E-02 7.33174700574000E-02 7.45713103072000E-02 7.58465832062000E-02 
7.71436551157000E-02 7.84628986592000E-02 7.98046928299000E-02 8.11694230994000E-02 
8.25574815282000E-02 8.39692668786000E-02 8.54051847293000E-02 8.68656475916000E-02 
8.83510750284000E-02 8.98618937741000E-02 9.13985378577000E-02 9.29614487274000E-02 
9.45510753771000E-02 9.61678744760000E-02 9.78123104990000E-02 9.94848558609000E-02 
1.01185991051000E-01 1.02916204774000E-01 1.04675994085000E-01 1.06465864539000E-01 
1.08286330330000E-01 1.10137914443000E-01 1.12021148803000E-01 1.13936574425000E-01 
1.15884741576000E-01 1.17866209925000E-01 1.19881548710000E-01 1.21931336899000E-01 
1.24016163356000E-01 1.26136627012000E-01 1.28293337035000E-01 1.30486913006000E-01 
1.32717985096000E-01 1.34987194250000E-01 1.37295192368000E-01 1.39642642493000E-01 
1.42030219001000E-01 1.44458607798000E-01 1.46928506512000E-01 1.49440624697000E-01 
1.51995684037000E-01 1.54594418550000E-01 1.57237574803000E-01 1.59925912124000E-01 
1.62660202819000E-01 1.65441232397000E-01 1.68269799795000E-01 1.71146717605000E-01 
1.74072812310000E-01 1.77048924520000E-01 1.80075909215000E-01 1.83154635988000E-01 
1.86285989300000E-01 1.89470868725000E-01 1.92710189220000E-01 1.96004881378000E-01 
1.99355891700000E-01 2.02764182867000E-01 2.06230734015000E-01 2.09756541016000E-01 
2.13342616768000E-01 2.16989991480000E-01 2.20699712972000E-01 2.24472846976000E-01 
2.28310477440000E-01 2.32213706840000E-01 2.36183656500000E-01 2.40221466909000E-01 
2.44328298051000E-01 2.48505329741000E-01 2.52753761957000E-01 2.57074815194000E-01 
2.61469730804000E-01 2.65939771364000E-01 2.70486221028000E-01 2.75110385904000E-01 
2.79813594426000E-01 2.84597197733000E-01 2.89462570062000E-01 2.94411109142000E-01 
2.99444236590000E-01 3.04563398328000E-01 3.09770064992000E-01 3.15065732356000E-01 
3.20451921762000E-01 3.25930180560000E-01 3.31502082546000E-01 3.37169228420000E-01 
3.42933246244000E-01 3.48795791909000E-01 3.54758549609000E-01 3.60823232331000E-01 
3.66991582340000E-01 3.73265371684000E-01 3.79646402701000E-01 3.86136508537000E-01 
3.92737553675000E-01 3.99451434467000E-01 4.06280079682000E-01 4.13225451056000E-01 
4.20289543861000E-01 4.27474387473000E-01 4.34782045960000E-01 4.42214618670000E-01 
4.49774240838000E-01 4.57463084196000E-01 4.65283357601000E-01 4.73237307665000E-01 
4.81327219405000E-01 4.89555416896000E-01 4.97924263940000E-01 5.06436164744000E-01 
5.15093564613000E-01 5.23898950651000E-01 5.32854852474000E-01 5.41963842939000E-01 
5.51228538884000E-01 5.60651601877000E-01 5.70235738980000E-01 5.79983703531000E-01 
5.89898295932000E-01 5.99982364453000E-01 6.10238806052000E-01 6.20670567206000E-01 
6.31280644758000E-01 6.42072086778000E-01 6.53047993439000E-01 6.64211517906000E-01 
6.75565867244000E-01 6.87114303338000E-01 6.98860143830000E-01 7.10806763072000E-01 
7.22957593097000E-01 7.35316124603000E-01 7.47885907958000E-01 7.60670554217000E-01 
7.73673736162000E-01 7.86899189354000E-01 8.00350713211000E-01 8.14032172095000E-01 
8.27947496424000E-01 8.42100683803000E-01 8.56495800168000E-01 8.71136980956000E-01 
8.86028432297000E-01 9.01174432216000E-01 9.16579331866000E-01 9.32247556775000E-01 
9.48183608123000E-01 9.64392064028000E-01 9.80877580866000E-01 9.97644894607000E-01 
1.01469882218000E+00 1.03204426284000E+00 1.04968619960000E+00 1.06762970064000E+00 
1.08587992080000E+00 1.10444210300000E+00 1.12332157980000E+00 1.14252377490000E+00 
1.16205420474000E+00 1.18191848001000E+00 1.20212230735000E+00 1.22267149091000E+00 
1.24357193410000E+00 1.26482964118000E+00 1.28645071911000E+00 1.30844137919000E+00 
1.33080793891000E+00 1.35355682375000E+00 1.37669456903000E+00 1.40022782178000E+00 
1.42416334264000E+00 1.44850800782000E+00 1.47326881108000E+00 1.49845286571000E+00 
1.52406740661000E+00 1.55011979234000E+00 1.57661750725000E+00 1.60356816360000E+00 
1.63097950382000E+00 1.65885940265000E+00 1.68721586943000E+00 1.71605705044000E+00 
1.74539123118000E+00 1.77522683881000E+00 1.80557244451000E+00 1.83643676599000E+00 
1.86782866997000E+00 1.89975717474000E+00 1.93223145274000E+00 1.96526083320000E+00 
1.99885480482000E+00 2.03302301850000E+00 2.06777529011000E+00 2.10312160330000E+00 
2.13907211238000E+00 2.17563714525000E+00 2.21282720632000E+00 2.25065297958000E+00 
2.28912533165000E+00 2.32825531488000E+00 2.36805417057000E+00 2.40853333215000E+00 
2.44970442850000E+00 2.49157928729000E+00 2.53416993834000E+00 2.57748861714000E+00 
2.62154776829000E+00 2.66636004915000E+00 2.71193833340000E+00 2.75829571481000E+00 
2.80544551096000E+00 2.85340126708000E+00 2.90217675992000E+00 2.95178600173000E+00 
3.00224324430000E+00 3.05356298301000E+00 3.10575996104000E+00 3.15884917355000E+00 
3.21284587206000E+00 3.26776556878000E+00 3.32362404106000E+00 3.38043733597000E+00 
3.43822177486000E+00 3.49699395810000E+00 3.55677076978000E+00 3.61756938264000E+00 
3.67940726292000E+00 3.74230217548000E+00 3.80627218878000E+00 3.87133568018000E+00 
3.93751134117000E+00 4.00481818273000E+00 4.07327554080000E+00 4.14290308188000E+00 
4.21372080859000E+00 4.28574906551000E+00 4.35900854496000E+00 4.43352029296000E+00 
4.50930571531000E+00 4.58638658369000E+00 4.66478504194000E+00 4.74452361241000E+00 
4.82562520247000E+00 4.90811311102000E+00 4.99201103524000E+00 5.07734307740000E+00 
5.16413375172000E+00 5.25240799149000E+00 5.34219115619000E+00 5.43350903880000E+00 
5.52638787316000E+00 5.62085434157000E+00 5.71693558242000E+00 5.81465919799000E+00 
5.91405326239000E+00 6.01514632960000E+00 6.11796744170000E+00 6.22254613722000E+00 
6.32891245959000E+00 6.43709696579000E+00 6.54713073514000E+00 6.65904537822000E+00 
6.77287304593000E+00 6.88864643876000E+00 7.00639881616000E+00 7.12616400612000E+00 
7.24797641486000E+00 7.37187103672000E+00 7.49788346423000E+00 7.62604989832000E+00 
7.75640715874000E+00 7.88899269459000E+00 8.02384459514000E+00 8.16100160073000E+00 
8.30050311391000E+00 8.44238921077000E+00 8.58670065244000E+00 8.73347889680000E+00 
8.88276611040000E+00 9.03460518057000E+00 9.18903972774000E+00 9.34611411796000E+00 
9.50587347566000E+00 9.66836369663000E+00 9.83363146114000E+00 1.00017242474000E+01 
1.01726903453000E+01 1.03465788701000E+01 1.05234397764000E+01 1.07033238732000E+01 
1.08862828375000E+01 1.10723692300000E+01 1.12616365097000E+01 1.14541390493000E+01 
1.16499321512000E+01 1.18490720630000E+01 1.20516159936000E+01 1.22576221300000E+01 
1.24671496539000E+01 1.26802587583000E+01 1.28970106655000E+01 1.31174676440000E+01 
1.33416930268000E+01 1.35697512297000E+01 1.38017077693000E+01 1.40376292822000E+01 
1.42775835441000E+01 1.45216394892000E+01 1.47698672301000E+01 1.50223380778000E+01 
1.52791245622000E+01 1.55403004533000E+01 1.58059407817000E+01 1.60761218608000E+01 
1.63509213084000E+01 1.66304180690000E+01 1.69146924367000E+01 1.72038260779000E+01 
1.74979020553000E+01 1.77970048510000E+01 1.81012203916000E+01 1.84106360723000E+01 
1.87253407823000E+01 1.90454249300000E+01 1.93709804696000E+01 1.97021009267000E+01 
2.00388814260000E+01 2.03814187178000E+01 2.07298112067000E+01 2.10841589789000E+01 
2.14445638317000E+01 2.18111293025000E+01 2.21839606984000E+01 2.25631651268000E+01 
2.29488515256000E+01 2.33411306951000E+01 2.37401153295000E+01 2.41459200495000E+01 
2.45586614348000E+01 2.49784580580000E+01 2.54054305187000E+01 2.58397014777000E+01 
2.62813956926000E+01 2.67306400537000E+01 2.71875636202000E+01 2.76522976574000E+01 
2.81249756743000E+01 2.86057334623000E+01 2.90947091337000E+01 2.95920431618000E+01 
3.00978784210000E+01 3.06123602281000E+01 3.11356363836000E+01 3.16678572146000E+01 
3.22091756181000E+01 3.27597471041000E+01 3.33197298413000E+01 3.38892847019000E+01 
3.44685753080000E+01 3.50577680785000E+01 3.56570322771000E+01 3.62665400609000E+01 
3.68864665296000E+01 3.75169897760000E+01 3.81582909375000E+01 3.88105542472000E+01 
3.94739670880000E+01 4.01487200454000E+01 4.08350069629000E+01 4.15330249974000E+01 
4.22429746761000E+01 4.29650599538000E+01 4.36994882715000E+01 4.44464706163000E+01 
4.52062215818000E+01 4.59789594298000E+01 4.67649061528000E+01 4.75642875382000E+01 
4.83773332327000E+01 4.92042768086000E+01 5.00453558310000E+01 5.09008119253000E+01 
5.17708908478000E+01 5.26558425551000E+01 5.35559212768000E+01 5.44713855880000E+01 
5.54024984841000E+01 5.63495274556000E+01 5.73127445657000E+01 5.82924265280000E+01 
5.92888547863000E+01 6.03023155949000E+01 6.13331001017000E+01 6.23815044311000E+01 
6.34478297693000E+01 6.45323824509000E+01 6.56354740471000E+01 6.67574214546000E+01 
6.78985469872000E+01 6.90591784683000E+01 7.02396493247000E+01 7.14402986829000E+01 
7.26614714662000E+01 7.39035184940000E+01 7.51667965824000E+01 7.64516686466000E+01 
7.77585038055000E+01 7.90876774877000E+01 8.04395715389000E+01 8.18145743322000E+01 
8.32130808793000E+01 8.46354929441000E+01 8.60822191579000E+01 8.75536751374000E+01 
8.90502836032000E+01 9.05724745020000E+01 9.21206851298000E+01 9.36953602577000E+01 
9.52969522592000E+01 9.69259212408000E+01 9.85827351737000E+01 1.00267870028000E+02 
1.01981809912000E+02 1.03725047206000E+02 1.05498082708000E+02 1.07301425778000E+02 
1.09135594480000E+02 1.11001115737000E+02 1.12898525477000E+02 1.14828368787000E+02 
1.16791200076000E+02 1.18787583226000E+02 1.20818091761000E+02 1.22883309004000E+02 
1.24983828255000E+02 1.27120252950000E+02 1.29293196844000E+02 1.31503284181000E+02 
1.33751149877000E+02 1.36037439699000E+02 1.38362810456000E+02 1.40727930180000E+02 
1.43133478325000E+02 1.45580145958000E+02 1.48068635960000E+02 1.50599663226000E+02 
1.53173954870000E+02 1.55792250437000E+02 1.58455302113000E+02 1.61163874941000E+02 
1.63918747041000E+02 1.66720709835000E+02 1.69570568272000E+02 1.72469141062000E+02 
1.75417260909000E+02 1.78415774750000E+02 1.81465544000000E+02 1.84567444799000E+02 
1.87722368264000E+02 1.90931220742000E+02 1.94194924075000E+02 1.97514415861000E+02 
2.00890649727000E+02 
</PP_R>
    <PP_RAB>
5.75517106261000E-07 5.85354767993000E-07 5.95360590823000E-07 6.05537449230000E-07 
6.15888266828000E-07 6.26416017207000E-07 6.37123724787000E-07 6.48014465684000E-07 
6.59091368597000E-07 6.70357615706000E-07 6.81816443586000E-07 6.93471144137000E-07 
7.05325065528000E-07 7.17381613162000E-07 7.29644250652000E-07 7.42116500815000E-07 
7.54801946689000E-07 7.67704232556000E-07 7.80827064993000E-07 7.94174213936000E-07 
8.07749513763000E-07 8.21556864395000E-07 8.35600232416000E-07 8.49883652214000E-07 
8.64411227139000E-07 8.79187130683000E-07 8.94215607677000E-07 9.09500975510000E-07 
9.25047625375000E-07 9.40860023522000E-07 9.56942712547000E-07 9.73300312695000E-07 
9.89937523190000E-07 1.00685912358000E-06 1.02406997511000E-06 1.04157502213000E-06 
1.05937929350000E-06 1.07748790403000E-06 1.09590605600000E-06 1.11463904056000E-06 
1.13369223936000E-06 1.15307112599000E-06 1.17278126765000E-06 1.19282832667000E-06 
1.21321806219000E-06 1.23395633178000E-06 1.25504909314000E-06 1.27650240582000E-06 
1.29832243295000E-06 1.32051544298000E-06 1.34308781155000E-06 1.36604602326000E-06 
1.38939667355000E-06 1.41314647063000E-06 1.43730223734000E-06 1.46187091317000E-06 
1.48685955622000E-06 1.51227534525000E-06 1.53812558173000E-06 1.56441769192000E-06 
1.59115922904000E-06 1.61835787541000E-06 1.64602144469000E-06 1.67415788408000E-06 
1.70277527663000E-06 1.73188184357000E-06 1.76148594665000E-06 1.79159609055000E-06 
1.82222092534000E-06 1.85336924895000E-06 1.88505000967000E-06 1.91727230878000E-06 
1.95004540313000E-06 1.98337870779000E-06 2.01728179877000E-06 2.05176441577000E-06 
2.08683646499000E-06 2.12250802194000E-06 2.15878933437000E-06 2.19569082521000E-06 
2.23322309553000E-06 2.27139692763000E-06 2.31022328812000E-06 2.34971333105000E-06 
2.38987840115000E-06 2.43073003707000E-06 2.47227997470000E-06 2.51454015052000E-06 
2.55752270506000E-06 2.60123998639000E-06 2.64570455363000E-06 2.69092918060000E-06 
2.73692685944000E-06 2.78371080441000E-06 2.83129445563000E-06 2.87969148295000E-06 
2.92891578992000E-06 2.97898151771000E-06 3.02990304925000E-06 3.08169501330000E-06 
3.13437228870000E-06 3.18795000860000E-06 3.24244356486000E-06 3.29786861240000E-06 
3.35424107378000E-06 3.41157714371000E-06 3.46989329374000E-06 3.52920627696000E-06 
3.58953313286000E-06 3.65089119217000E-06 3.71329808186000E-06 3.77677173024000E-06 
3.84133037206000E-06 3.90699255375000E-06 3.97377713881000E-06 4.04170331314000E-06 
4.11079059062000E-06 4.18105881869000E-06 4.25252818406000E-06 4.32521921848000E-06 
4.39915280468000E-06 4.47435018236000E-06 4.55083295427000E-06 4.62862309241000E-06 
4.70774294441000E-06 4.78821523985000E-06 4.87006309688000E-06 4.95331002880000E-06 
5.03797995083000E-06 5.12409718702000E-06 5.21168647717000E-06 5.30077298400000E-06 
5.39138230033000E-06 5.48354045647000E-06 5.57727392767000E-06 5.67260964174000E-06 
5.76957498680000E-06 5.86819781910000E-06 5.96850647108000E-06 6.07052975947000E-06 
6.17429699360000E-06 6.27983798377000E-06 6.38718304988000E-06 6.49636303007000E-06 
6.60740928966000E-06 6.72035373008000E-06 6.83522879808000E-06 6.95206749504000E-06 
7.07090338647000E-06 7.19177061161000E-06 7.31470389329000E-06 7.43973854784000E-06 
7.56691049532000E-06 7.69625626975000E-06 7.82781302968000E-06 7.96161856882000E-06 
8.09771132692000E-06 8.23613040077000E-06 8.37691555552000E-06 8.52010723600000E-06 
8.66574657843000E-06 8.81387542215000E-06 8.96453632173000E-06 9.11777255912000E-06 
9.27362815613000E-06 9.43214788706000E-06 9.59337729155000E-06 9.75736268771000E-06 
9.92415118534000E-06 1.00937906996000E-05 1.02663299646000E-05 1.04418185475000E-05 
1.06203068628000E-05 1.08018461868000E-05 1.09864886721000E-05 1.11742873631000E-05 
1.13652962106000E-05 1.15595700877000E-05 1.17571648057000E-05 1.19581371296000E-05 
1.21625447949000E-05 1.23704465239000E-05 1.25819020429000E-05 1.27969720988000E-05 
1.30157184772000E-05 1.32382040197000E-05 1.34644926420000E-05 1.36946493525000E-05 
1.39287402707000E-05 1.41668326465000E-05 1.44089948792000E-05 1.46552965373000E-05 
1.49058083784000E-05 1.51606023699000E-05 1.54197517091000E-05 1.56833308445000E-05 
1.59514154975000E-05 1.62240826834000E-05 1.65014107343000E-05 1.67834793212000E-05 
1.70703694770000E-05 1.73621636195000E-05 1.76589455757000E-05 1.79608006053000E-05 
1.82678154253000E-05 1.85800782352000E-05 1.88976787420000E-05 1.92207081862000E-05 
1.95492593680000E-05 1.98834266737000E-05 2.02233061031000E-05 2.05689952970000E-05 
2.09205935652000E-05 2.12782019152000E-05 2.16419230808000E-05 2.20118615521000E-05 
2.23881236052000E-05 2.27708173331000E-05 2.31600526762000E-05 2.35559414542000E-05 
2.39585973983000E-05 2.43681361839000E-05 2.47846754635000E-05 2.52083349007000E-05 
2.56392362047000E-05 2.60775031652000E-05 2.65232616877000E-05 2.69766398300000E-05 
2.74377678389000E-05 2.79067781876000E-05 2.83838056137000E-05 2.88689871578000E-05 
2.93624622033000E-05 2.98643725160000E-05 3.03748622851000E-05 3.08940781643000E-05 
3.14221693143000E-05 3.19592874455000E-05 3.25055868616000E-05 3.30612245037000E-05 
3.36263599959000E-05 3.42011556907000E-05 3.47857767156000E-05 3.53803910210000E-05 
3.59851694282000E-05 3.66002856782000E-05 3.72259164820000E-05 3.78622415713000E-05 
3.85094437499000E-05 3.91677089465000E-05 3.98372262679000E-05 4.05181880536000E-05 
4.12107899306000E-05 4.19152308702000E-05 4.26317132444000E-05 4.33604428849000E-05 
4.41016291416000E-05 4.48554849430000E-05 4.56222268572000E-05 4.64020751543000E-05 
4.71952538697000E-05 4.80019908682000E-05 4.88225179099000E-05 4.96570707162000E-05 
5.05058890380000E-05 5.13692167244000E-05 5.22473017927000E-05 5.31403964999000E-05 
5.40487574146000E-05 5.49726454914000E-05 5.59123261455000E-05 5.68680693289000E-05 
5.78401496083000E-05 5.88288462433000E-05 5.98344432675000E-05 6.08572295694000E-05 
6.18974989757000E-05 6.29555503357000E-05 6.40316876071000E-05 6.51262199433000E-05 
6.62394617822000E-05 6.73717329366000E-05 6.85233586863000E-05 6.96946698709000E-05 
7.08860029855000E-05 7.20977002771000E-05 7.33301098428000E-05 7.45835857300000E-05 
7.58584880382000E-05 7.71551830221000E-05 7.84740431971000E-05 7.98154474461000E-05 
8.11797811286000E-05 8.25674361914000E-05 8.39788112809000E-05 8.54143118578000E-05 
8.68743503136000E-05 8.83593460892000E-05 8.98697257951000E-05 9.14059233342000E-05 
9.29683800262000E-05 9.45575447348000E-05 9.61738739963000E-05 9.78178321507000E-05 
9.94898914754000E-05 1.01190532321000E-04 1.02920243248000E-04 1.04679521169000E-04 
1.06468871492000E-04 1.08288808260000E-04 1.10139854308000E-04 1.12022541405000E-04 
1.13937410410000E-04 1.15885011428000E-04 1.17865903968000E-04 1.19880657101000E-04 
1.21929849627000E-04 1.24014070240000E-04 1.26133917695000E-04 1.28290000983000E-04 
1.30482939507000E-04 1.32713363254000E-04 1.34981912982000E-04 1.37289240402000E-04 
1.39636008364000E-04 1.42022891049000E-04 1.44450574163000E-04 1.46919755131000E-04 
1.49431143302000E-04 1.51985460148000E-04 1.54583439476000E-04 1.57225827636000E-04 
1.59913383732000E-04 1.62646879850000E-04 1.65427101269000E-04 1.68254846693000E-04 
1.71130928478000E-04 1.74056172868000E-04 1.77031420228000E-04 1.80057525289000E-04 
1.83135357393000E-04 1.86265800742000E-04 1.89449754650000E-04 1.92688133808000E-04 
1.95981868537000E-04 1.99331905065000E-04 2.02739205791000E-04 2.06204749569000E-04 
2.09729531980000E-04 2.13314565628000E-04 2.16960880423000E-04 2.20669523880000E-04 
2.24441561422000E-04 2.28278076680000E-04 2.32180171813000E-04 2.36148967817000E-04 
2.40185604849000E-04 2.44291242557000E-04 2.48467060413000E-04 2.52714258047000E-04 
2.57034055596000E-04 2.61427694057000E-04 2.65896435634000E-04 2.70441564113000E-04 
2.75064385220000E-04 2.79766227001000E-04 2.84548440206000E-04 2.89412398672000E-04 
2.94359499719000E-04 2.99391164555000E-04 3.04508838679000E-04 3.09713992299000E-04 
3.15008120757000E-04 3.20392744951000E-04 3.25869411782000E-04 3.31439694588000E-04 
3.37105193606000E-04 3.42867536422000E-04 3.48728378446000E-04 3.54689403386000E-04 
3.60752323727000E-04 3.66918881231000E-04 3.73190847428000E-04 3.79570024135000E-04 
3.86058243964000E-04 3.92657370857000E-04 3.99369300614000E-04 4.06195961442000E-04 
4.13139314511000E-04 4.20201354509000E-04 4.27384110226000E-04 4.34689645127000E-04 
4.42120057952000E-04 4.49677483314000E-04 4.57364092315000E-04 4.65182093170000E-04 
4.73133731838000E-04 4.81221292672000E-04 4.89447099071000E-04 4.97813514151000E-04 
5.06322941420000E-04 5.14977825472000E-04 5.23780652689000E-04 5.32733951951000E-04 
5.41840295369000E-04 5.51102299019000E-04 5.60522623695000E-04 5.70103975674000E-04 
5.79849107493000E-04 5.89760818740000E-04 5.99841956858000E-04 6.10095417963000E-04 
6.20524147676000E-04 6.31131141969000E-04 6.41919448025000E-04 6.52892165118000E-04 
6.64052445495000E-04 6.75403495291000E-04 6.86948575440000E-04 6.98691002623000E-04 
7.10634150210000E-04 7.22781449237000E-04 7.35136389388000E-04 7.47702519999000E-04 