<UPF version="2.0.1">
  <PP_INFO>
Generated using Vanderbilt code, version   7  3  6
Author: kfg        Generation date:   13    5 2013
Automatically converted from original USPP format to UPF.v1.

Futher converted to UPF.v2 format.
Convert Q_IJ to Q_IJL use the same routine as 'upflib/upf_to_internal.f90' of QE.
The conversion is done by using PseudoPotentialIO.jl package.
Converted by: JYU on 2024-04-30

1        The Pseudo was generated with a Scalar-Relativistic Calculation
2.10000000000E+00    Local Potential cutoff radius
nl pn  l   occ               Rcut            Rcut US             E pseu
5S  5  0  2.00      0.00000000000      2.10000000000     -1.11046279000
5P  5  1  4.00      0.00000000000      2.10000000000     -0.43756267400
</PP_INFO>
  <PP_HEADER element="Te" pseudo_type="US" relativistic="scalar" is_ultrasoft="T" is_paw="F" is_coulomb="F" has_so="F" has_wfc="F" has_gipaw="F" core_correction="T" functional="PBE" z_valence="6.0" total_psenergy="-26.2684399004" wfc_cutoff="0.0" rho_cutoff="0.0" l_max="2" mesh_size="891" number_of_wfc="2" number_of_proj="5"/>
  <PP_MESH>
    <PP_R>
0.00000000000000E+00 1.10039444928000E-09 2.22864551667000E-09 3.38545839581000E-09 
4.57155613242000E-09 5.78768007617000E-09 7.03459034414000E-09 8.31306629582000E-09 
9.62390702031000E-09 1.09679318357000E-08 1.23459808013000E-08 1.37589152426000E-08 
1.52076182895000E-08 1.66929954287000E-08 1.82159750692000E-08 1.97775091228000E-08 
2.13785735992000E-08 2.30201692158000E-08 2.47033220233000E-08 2.64290840469000E-08 
2.81985339442000E-08 3.00127776789000E-08 3.18729492124000E-08 3.37802112124000E-08 
3.57357557799000E-08 3.77408051938000E-08 3.97966126752000E-08 4.19044631708000E-08 
4.40656741558000E-08 4.62815964573000E-08 4.85536150990000E-08 5.08831501664000E-08 
5.32716576948000E-08 5.57206305792000E-08 5.82315995073000E-08 6.08061339164000E-08 
6.34458429744000E-08 6.61523765854000E-08 6.89274264209000E-08 7.17727269774000E-08 
7.46900566605000E-08 7.76812388961000E-08 8.07481432706000E-08 8.38926866989000E-08 
8.71168346230000E-08 9.04226022405000E-08 9.38120557636000E-08 9.72873137112000E-08 
1.00850548233000E-07 1.04503986465000E-07 1.08249911927000E-07 1.12090665944000E-07 
1.16028649111000E-07 1.20066322797000E-07 1.24206210679000E-07 1.28450900321000E-07 
1.32803044794000E-07 1.37265364328000E-07 1.41840648019000E-07 1.46531755568000E-07 
1.51341619070000E-07 1.56273244847000E-07 1.61329715324000E-07 1.66514190961000E-07 
1.71829912223000E-07 1.77280201610000E-07 1.82868465730000E-07 1.88598197429000E-07 
1.94472977977000E-07 2.00496479303000E-07 2.06672466290000E-07 2.13004799133000E-07 
2.19497435744000E-07 2.26154434234000E-07 2.32979955443000E-07 2.39978265544000E-07 
2.47153738709000E-07 2.54510859842000E-07 2.62054227383000E-07 2.69788556182000E-07 
2.77718680447000E-07 2.85849556764000E-07 2.94186267195000E-07 3.02734022455000E-07 
3.11498165169000E-07 3.20484173213000E-07 3.29697663133000E-07 3.39144393661000E-07 
3.48830269311000E-07 3.58761344071000E-07 3.68943825185000E-07 3.79384077035000E-07 
3.90088625120000E-07 4.01064160129000E-07 4.12317542130000E-07 4.23855804853000E-07 
4.35686160087000E-07 4.47816002190000E-07 4.60252912707000E-07 4.73004665113000E-07 
4.86079229669000E-07 4.99484778401000E-07 5.13229690216000E-07 5.27322556130000E-07 
5.41772184643000E-07 5.56587607243000E-07 5.71778084052000E-07 5.87353109612000E-07 
6.03322418822000E-07 6.19695993019000E-07 6.36484066220000E-07 6.53697131517000E-07 
6.71345947637000E-07 6.89441545665000E-07 7.07995235937000E-07 7.27018615115000E-07 
7.46523573429000E-07 7.66522302114000E-07 7.87027301026000E-07 8.08051386457000E-07 
8.29607699144000E-07 8.51709712485000E-07 8.74371240958000E-07 8.97606448755000E-07 
9.21429858638000E-07 9.45856361014000E-07 9.70901223241000E-07 9.96580099174000E-07 
1.02290903895000E-06 1.04990449900000E-06 1.07758335238000E-06 1.10596289927000E-06 
1.13506087781000E-06 1.16489547519000E-06 1.19548533899000E-06 1.22684958888000E-06 
1.25900782854000E-06 1.29198015791000E-06 1.32578718577000E-06 1.36045004261000E-06 
1.39599039386000E-06 1.43243045338000E-06 1.46979299740000E-06 1.50810137872000E-06 
1.54737954134000E-06 1.58765203537000E-06 1.62894403245000E-06 1.67128134141000E-06 
1.71469042445000E-06 1.75919841365000E-06 1.80483312797000E-06 1.85162309058000E-06 
1.89959754673000E-06 1.94878648203000E-06 1.99922064114000E-06 2.05093154708000E-06 
2.10395152083000E-06 2.15831370161000E-06 2.21405206754000E-06 2.27120145693000E-06 
2.32979758999000E-06 2.38987709123000E-06 2.45147751228000E-06 2.51463735542000E-06 
2.57939609760000E-06 2.64579421514000E-06 2.71387320903000E-06 2.78367563085000E-06 
2.85524510939000E-06 2.92862637791000E-06 3.00386530209000E-06 3.08100890870000E-06 
3.16010541501000E-06 3.24120425891000E-06 3.32435612982000E-06 3.40961300036000E-06 
3.49702815886000E-06 3.58665624263000E-06 3.67855327214000E-06 3.77277668603000E-06 
3.86938537699000E-06 3.96843972862000E-06 4.07000165309000E-06 4.17413462992000E-06 
4.28090374561000E-06 4.39037573434000E-06 4.50261901965000E-06 4.61770375725000E-06 
4.73570187886000E-06 4.85668713715000E-06 4.98073515182000E-06 5.10792345694000E-06 
5.23833154933000E-06 5.37204093830000E-06 5.50913519656000E-06 5.64970001250000E-06 
5.79382324369000E-06 5.94159497185000E-06 6.09310755912000E-06 6.24845570580000E-06 
6.40773650953000E-06 6.57104952601000E-06 6.73849683118000E-06 6.91018308506000E-06 
7.08621559716000E-06 7.26670439351000E-06 7.45176228550000E-06 7.64150494032000E-06 
7.83605095332000E-06 8.03552192209000E-06 8.24004252248000E-06 8.44974058651000E-06 
8.66474718230000E-06 8.88519669599000E-06 9.11122691568000E-06 9.34297911762000E-06 
9.58059815449000E-06 9.82423254592000E-06 1.00740345713000E-05 1.03301603651000E-05 
1.05927700142000E-05 1.08620276583000E-05 1.11381015921000E-05 1.14211643707000E-05 
1.17113929177000E-05 1.20089686354000E-05 1.23140775182000E-05 1.26269102692000E-05 
1.29476624190000E-05 1.32765344481000E-05 1.36137319122000E-05 1.39594655708000E-05 
1.43139515186000E-05 1.46774113210000E-05 1.50500721520000E-05 1.54321669369000E-05 
1.58239344973000E-05 1.62256197007000E-05 1.66374736135000E-05 1.70597536577000E-05 
1.74927237721000E-05 1.79366545771000E-05 1.83918235440000E-05 1.88585151681000E-05 
1.93370211470000E-05 1.98276405623000E-05 2.03306800673000E-05 2.08464540780000E-05 
2.13752849700000E-05 2.19175032797000E-05 2.24734479112000E-05 2.30434663482000E-05 
2.36279148705000E-05 2.42271587776000E-05 2.48415726165000E-05 2.54715404158000E-05 
2.61174559258000E-05 2.67797228648000E-05 2.74587551712000E-05 2.81549772622000E-05 
2.88688242994000E-05 2.96007424604000E-05 3.03511892179000E-05 3.11206336254000E-05 
3.19095566109000E-05 3.27184512768000E-05 3.35478232087000E-05 3.43981907910000E-05 
3.52700855312000E-05 3.61640523918000E-05 3.70806501312000E-05 3.80204516528000E-05 
3.89840443632000E-05 3.99720305393000E-05 4.09850277044000E-05 4.20236690149000E-05 
4.30886036554000E-05 4.41804972446000E-05 4.53000322516000E-05 4.64479084223000E-05 
4.76248432165000E-05 4.88315722570000E-05 5.00688497885000E-05 5.13374491499000E-05 
5.26381632569000E-05 5.39718050984000E-05 5.53392082439000E-05 5.67412273647000E-05 
5.81787387686000E-05 5.96526409470000E-05 6.11638551366000E-05 6.27133258956000E-05 
6.43020216935000E-05 6.59309355171000E-05 6.76010854905000E-05 6.93135155117000E-05 
7.10692959053000E-05 7.28695240912000E-05 7.47153252706000E-05 7.66078531293000E-05 
7.85482905588000E-05 8.05378503957000E-05 8.25777761797000E-05 8.46693429308000E-05 
8.68138579463000E-05 8.90126616178000E-05 9.12671282693000E-05 9.35786670158000E-05 
9.59487226443000E-05 9.83787765166000E-05 1.00870347496000E-04 1.03424992894000E-04 
1.06044309449000E-04 1.08729934318000E-04 1.11483546105000E-04 1.14306865905000E-04 
1.17201658387000E-04 1.20169732889000E-04 1.23212944555000E-04 1.26333195491000E-04 
1.29532435955000E-04 1.32812665578000E-04 1.36175934609000E-04 1.39624345200000E-04 
1.43160052721000E-04 1.46785267105000E-04 1.50502254227000E-04 1.54313337327000E-04 
1.58220898454000E-04 1.62227379962000E-04 1.66335286033000E-04 1.70547184241000E-04 
1.74865707159000E-04 1.79293554006000E-04 1.83833492330000E-04 1.88488359739000E-04 
1.93261065677000E-04 1.98154593242000E-04 2.03172001047000E-04 2.08316425135000E-04 
2.13591080939000E-04 2.18999265291000E-04 2.24544358481000E-04 2.30229826373000E-04 
2.36059222570000E-04 2.42036190635000E-04 2.48164466367000E-04 2.54447880137000E-04 
2.60890359284000E-04 2.67495930568000E-04 2.74268722684000E-04 2.81212968850000E-04 
2.88333009444000E-04 2.95633294723000E-04 3.03118387605000E-04 3.10792966515000E-04 
3.18661828315000E-04 3.26729891299000E-04 3.35002198271000E-04 3.43483919691000E-04 
3.52180356910000E-04 3.61096945486000E-04 3.70239258577000E-04 3.79613010425000E-04 
3.89224059931000E-04 3.99078414313000E-04 4.09182232865000E-04 4.19541830801000E-04 
4.30163683207000E-04 4.41054429087000E-04 4.52220875512000E-04 4.63670001873000E-04 
4.75408964249000E-04 4.87445099871000E-04 4.99785931718000E-04 5.12439173211000E-04 
5.25412733036000E-04 5.38714720093000E-04 5.52353448554000E-04 5.66337443071000E-04 
5.80675444094000E-04 5.95376413342000E-04 6.10449539397000E-04 6.25904243456000E-04 
6.41750185210000E-04 6.57997268890000E-04 6.74655649451000E-04 6.91735738924000E-04 
7.09248212920000E-04 7.27204017306000E-04 7.45614375045000E-04 7.64490793208000E-04 
7.83845070172000E-04 8.03689302991000E-04 8.24035894954000E-04 8.44897563346000E-04 
8.66287347388000E-04 8.88218616390000E-04 9.10705078110000E-04 9.33760787319000E-04 
9.57400154586000E-04 9.81637955284000E-04 1.00648933883000E-03 1.03196983814000E-03 
1.05809537937000E-03 1.08488229181000E-03 1.11234731818000E-03 1.14050762500000E-03 
1.16938081338000E-03 1.19898493001000E-03 1.22933847841000E-03 1.26046043055000E-03 
1.29237023866000E-03 1.32508784741000E-03 1.35863370637000E-03 1.39302878279000E-03 
1.42829457471000E-03 1.46445312441000E-03 1.50152703215000E-03 1.53953947033000E-03 
1.57851419797000E-03 1.61847557554000E-03 1.65944858019000E-03 1.70145882140000E-03 
1.74453255692000E-03 1.78869670925000E-03 1.83397888243000E-03 1.88040737927000E-03 
1.92801121910000E-03 1.97682015588000E-03 2.02686469678000E-03 2.07817612126000E-03 
2.13078650063000E-03 2.18472871810000E-03 2.24003648931000E-03 2.29674438341000E-03 
2.35488784468000E-03 2.41450321469000E-03 2.47562775497000E-03 2.53829967035000E-03 
2.60255813283000E-03 2.66844330603000E-03 2.73599637033000E-03 2.80525954859000E-03 
2.87627613256000E-03 2.94909050991000E-03 3.02374819200000E-03 3.10029584231000E-03 
3.17878130562000E-03 3.25925363789000E-03 3.34176313694000E-03 3.42636137391000E-03 
3.51310122545000E-03 3.60203690678000E-03 3.69322400560000E-03 3.78671951682000E-03 
3.88258187818000E-03 3.98087100676000E-03 4.08164833649000E-03 4.18497685646000E-03 
4.29092115037000E-03 4.39954743684000E-03 4.51092361085000E-03 4.62511928613000E-03 
4.74220583870000E-03 4.86225645145000E-03 4.98534615993000E-03 5.11155189922000E-03 
5.24095255201000E-03 5.37362899792000E-03 5.50966416405000E-03 5.64914307681000E-03 
5.79215291505000E-03 5.93878306459000E-03 6.08912517403000E-03 6.24327321210000E-03 
6.40132352632000E-03 6.56337490330000E-03 6.72952863042000E-03 6.89988855916000E-03 
7.07456117004000E-03 7.25365563911000E-03 7.43728390625000E-03 7.62556074511000E-03 
7.81860383483000E-03 8.01653383364000E-03 8.21947445422000E-03 8.42755254107000E-03 
8.64089814977000E-03 8.85964462826000E-03 9.08392870022000E-03 9.31389055050000E-03 
9.54967391273000E-03 9.79142615920000E-03 1.00392983929000E-02 1.02934455421000E-02 
1.05540264570000E-02 1.08212040092000E-02 1.10951451933000E-02 1.13760212315000E-02 
1.16640076804000E-02 1.19592845411000E-02 1.22620363710000E-02 1.25724524000000E-02 
1.28907266482000E-02 1.32170580473000E-02 1.35516505652000E-02 1.38947133329000E-02 
1.42464607760000E-02 1.46071127480000E-02 1.49768946681000E-02 1.53560376621000E-02 
1.57447787067000E-02 1.61433607777000E-02 1.65520330018000E-02 1.69710508126000E-02 
1.74006761097000E-02 1.78411774231000E-02 1.82928300802000E-02 1.87559163788000E-02 
1.92307257629000E-02 1.97175550038000E-02 2.02167083855000E-02 2.07284978953000E-02 
2.12532434182000E-02 2.17912729373000E-02 2.23429227384000E-02 2.29085376208000E-02 
2.34884711121000E-02 2.40830856897000E-02 2.46927530069000E-02 2.53178541257000E-02 
2.59587797547000E-02 2.66159304933000E-02 2.72897170820000E-02 2.79805606594000E-02 
2.86888930252000E-02 2.94151569103000E-02 3.01598062531000E-02 3.09233064838000E-02 
3.17061348148000E-02 3.25087805394000E-02 3.33317453373000E-02 3.41755435882000E-02 
3.50407026935000E-02 3.59277634058000E-02 3.68372801670000E-02 3.77698214546000E-02 
3.87259701373000E-02 3.97063238392000E-02 4.07114953131000E-02 4.17421128241000E-02 
4.27988205416000E-02 4.38822789423000E-02 4.49931652230000E-02 4.61321737238000E-02 
4.73000163621000E-02 4.84974230775000E-02 4.97251422882000E-02 5.09839413587000E-02 
5.22746070794000E-02 5.35979461584000E-02 5.49547857256000E-02 5.63459738501000E-02 
5.77723800696000E-02 5.92348959344000E-02 6.07344355646000E-02 6.22719362213000E-02 
6.38483588924000E-02 6.54646888935000E-02 6.71219364833000E-02 6.88211374956000E-02 
7.05633539863000E-02 7.23496748975000E-02 7.41812167378000E-02 7.60591242806000E-02 
7.79845712791000E-02 7.99587612005000E-02 8.19829279777000E-02 8.40583367808000E-02 
8.61862848079000E-02 8.83681020957000E-02 9.06051523512000E-02 9.28988338035000E-02 
9.52505800782000E-02 9.76618610933000E-02 1.00134183978000E-01 1.02669094014000E-01 
1.05268175604000E-01 1.07933053257000E-01 1.10665392609000E-01 1.13466901461000E-01 
1.16339330848000E-01 1.19284476130000E-01 1.22304178121000E-01 1.25400324231000E-01 
1.28574849653000E-01 1.31829738569000E-01 1.35167025390000E-01 1.38588796029000E-01 
1.42097189204000E-01 1.45694397775000E-01 1.49382670115000E-01 1.53164311514000E-01 
1.57041685620000E-01 1.61017215919000E-01 1.65093387247000E-01 1.69272747343000E-01 
1.73557908444000E-01 1.77951548915000E-01 1.82456414924000E-01 1.87075322158000E-01 
1.91811157586000E-01 1.96666881259000E-01 2.01645528162000E-01 2.06750210111000E-01 
2.11984117698000E-01 2.17350522288000E-01 2.22852778056000E-01 2.28494324092000E-01 
2.34278686546000E-01 2.40209480832000E-01 2.46290413891000E-01 2.52525286503000E-01 
2.58917995667000E-01 2.65472537033000E-01 2.72193007405000E-01 2.79083607293000E-01 
2.86148643549000E-01 2.93392532049000E-01 3.00819800459000E-01 3.08435091064000E-01 
3.16243163669000E-01 3.24248898572000E-01 3.32457299620000E-01 3.40873497329000E-01 
3.49502752098000E-01 3.58350457492000E-01 3.67422143614000E-01 3.76723480563000E-01 
3.86260281978000E-01 3.96038508671000E-01 4.06064272350000E-01 4.16343839446000E-01 
4.26883635021000E-01 4.37690246792000E-01 4.48770429243000E-01 4.60131107847000E-01 
4.71779383400000E-01 4.83722536452000E-01 4.95968031863000E-01 5.08523523466000E-01 
5.21396858852000E-01 5.34596084276000E-01 5.48129449681000E-01 5.62005413864000E-01 
5.76232649751000E-01 5.90820049830000E-01 6.05776731700000E-01 6.21112043775000E-01 
6.36835571122000E-01 6.52957141460000E-01 6.69486831294000E-01 6.86434972218000E-01 
7.03812157372000E-01 7.21629248063000E-01 7.39897380552000E-01 7.58627973017000E-01 
7.77832732687000E-01 7.97523663163000E-01 8.17713071918000E-01 8.38413577988000E-01 
8.59638119865000E-01 8.81399963577000E-01 9.03712710986000E-01 9.26590308284000E-01 
9.50047054715000E-01 9.74097611510000E-01 9.98757011048000E-01 1.02404066626000E+00 
1.04996438025000E+00 1.07654435618000E+00 1.10379720741000E+00 1.13173996785000E+00 
1.16039010264000E+00 1.18976551904000E+00 1.21988457765000E+00 1.25076610386000E+00 
1.28242939963000E+00 1.31489425554000E+00 1.34818096320000E+00 1.38231032787000E+00 
1.41730368152000E+00 1.45318289614000E+00 1.48997039740000E+00 1.52768917869000E+00 
1.56636281547000E+00 1.60601548003000E+00 1.64667195657000E+00 1.68835765672000E+00 
1.73109863539000E+00 1.77492160708000E+00 1.81985396259000E+00 1.86592378609000E+00 
1.91315987272000E+00 1.96159174658000E+00 2.01124967917000E+00 2.06216470830000E+00 
2.11436865753000E+00 2.16789415603000E+00 2.22277465898000E+00 2.27904446847000E+00 
2.33673875497000E+00 2.39589357929000E+00 2.45654591511000E+00 2.51873367212000E+00 
2.58249571970000E+00 2.64787191120000E+00 2.71490310887000E+00 2.78363120938000E+00 
2.85409917004000E+00 2.92635103562000E+00 3.00043196589000E+00 3.07638826383000E+00 
3.15426740461000E+00 3.23411806522000E+00 3.31599015493000E+00 3.39993484646000E+00 
3.48600460798000E+00 3.57425323588000E+00 3.66473588843000E+00 3.75750912024000E+00 
3.85263091759000E+00 3.95016073470000E+00 4.05015953089000E+00 4.15268980866000E+00 
4.25781565277000E+00 4.36560277029000E+00 4.47611853168000E+00 4.58943201289000E+00 
4.70561403854000E+00 4.82473722616000E+00 4.94687603164000E+00 5.07210679570000E+00 
5.20050779165000E+00 5.33215927428000E+00 5.46714353007000E+00 5.60554492856000E+00 
5.74744997513000E+00 5.89294736506000E+00 6.04212803895000E+00 6.19508523958000E+00 
6.35191457018000E+00 6.51271405418000E+00 6.67758419651000E+00 6.84662804635000E+00 
7.01995126163000E+00 7.19766217500000E+00 7.37987186155000E+00 7.56669420828000E+00 
7.75824598524000E+00 7.95464691851000E+00 8.15601976509000E+00 8.36249038954000E+00 
8.57418784273000E+00 8.79124444247000E+00 9.01379585619000E+00 9.24198118578000E+00 
9.47594305448000E+00 9.71582769609000E+00 9.96178504631000E+00 1.02139688365000E+01 
1.04725366897000E+01 1.07376502193000E+01 1.10094751299000E+01 1.12881813208000E+01 
1.15739429925000E+01 1.18669387554000E+01 1.21673517414000E+01 1.24753697183000E+01 
1.27911852074000E+01 1.31149956037000E+01 1.34470032991000E+01 1.37874158095000E+01 
1.41364459035000E+01 1.44943117364000E+01 1.48612369861000E+01 1.52374509926000E+01 
1.56231889021000E+01 1.60186918132000E+01 1.64242069282000E+01 1.68399877072000E+01 
1.72662940267000E+01 1.77033923421000E+01 1.81515558541000E+01 1.86110646793000E+01 
1.90822060259000E+01 1.95652743724000E+01 2.00605716523000E+01 2.05684074426000E+01 
2.10890991571000E+01 2.16229722451000E+01 2.21703603947000E+01 2.27316057412000E+01 
2.33070590814000E+01 2.38970800922000E+01 2.45020375560000E+01 2.51223095909000E+01 
2.57582838872000E+01 2.64103579494000E+01 2.70789393451000E+01 2.77644459594000E+01 
2.84673062562000E+01 2.91879595462000E+01 2.99268562611000E+01 3.06844582354000E+01 
3.14612389949000E+01 3.22576840530000E+01 3.30742912138000E+01 3.39115708832000E+01 
3.47700463884000E+01 3.56502543044000E+01 3.65527447900000E+01 3.74780819309000E+01 
3.84268440931000E+01 3.93996242838000E+01 4.03970305223000E+01 4.14196862199000E+01 
4.24682305697000E+01 4.35433189462000E+01 4.46456233144000E+01 4.57758326506000E+01 
4.69346533724000E+01 4.81228097804000E+01 4.93410445110000E+01 5.05901190007000E+01 
5.18708139617000E+01 5.31839298699000E+01 5.45302874657000E+01 5.59107282662000E+01 
5.73261150919000E+01 5.87773326058000E+01 6.02652878659000E+01 6.17909108928000E+01 
6.33551552505000E+01 6.49589986426000E+01 6.66034435234000E+01 6.82895177247000E+01 
7.00182750975000E+01 7.17907961716000E+01 7.36081888304000E+01 7.54715890033000E+01 
7.73821613762000E+01 7.93411001190000E+01 8.13496296321000E+01 8.34090053120000E+01 
8.55205143354000E+01 8.76854764642000E+01 8.99052448702000E+01 9.21812069810000E+01 
9.45147853469000E+01 9.69074385304000E+01 9.93606620176000E+01 1.01875989153000E+02 
1.04454992098000E+02 1.07099282814000E+02 1.09810514067000E+02 1.12590380467000E+02 
1.15440619519000E+02 1.18363012717000E+02 1.21359386651000E+02 1.24431614151000E+02 
1.27581615462000E+02 1.30811359435000E+02 1.34122864766000E+02 1.37518201254000E+02 
1.40999491094000E+02 1.44568910206000E+02 1.48228689593000E+02 1.51981116737000E+02 
1.55828537025000E+02 1.59773355222000E+02 1.63818036967000E+02 1.67965110318000E+02 
1.72217167331000E+02 1.76576865680000E+02 1.81046930317000E+02 1.85630155180000E+02 
1.90329404932000E+02 1.95147616759000E+02 2.00087802198000E+02 
</PP_R>
    <PP_RAB>
1.08669683028000E-09 1.11420669151000E-09 1.14241296820000E-09 1.17133329017000E-09 
1.20098573359000E-09 1.23138883218000E-09 1.26256158888000E-09 1.29452348767000E-09 
1.32729450579000E-09 1.36089512617000E-09 1.39534635031000E-09 1.43066971134000E-09 
1.46688728752000E-09 1.50402171600000E-09 1.54209620701000E-09 1.58113455835000E-09 
1.62116117026000E-09 1.66220106067000E-09 1.70427988086000E-09 1.74742393145000E-09 
1.79166017888000E-09 1.83701627225000E-09 1.88352056059000E-09 1.93120211059000E-09 
1.98009072478000E-09 2.03021696012000E-09 2.08161214716000E-09 2.13430840955000E-09 
2.18833868417000E-09 2.24373674171000E-09 2.30053720775000E-09 2.35877558444000E-09 
2.41848827265000E-09 2.47971259476000E-09 2.54248681796000E-09 2.60685017819000E-09 
2.67284290464000E-09 2.74050624491000E-09 2.80988249080000E-09 2.88101500472000E-09 
2.95394824679000E-09 3.02872780268000E-09 3.10540041204000E-09 3.18401399775000E-09 
3.26461769586000E-09 3.34726188629000E-09 3.43199822437000E-09 3.51887967306000E-09 
3.60796053609000E-09 3.69929649191000E-09 3.79294462846000E-09 3.88896347887000E-09 
3.98741305806000E-09 4.08835490020000E-09 4.19185209725000E-09 4.29796933831000E-09 
4.40677295012000E-09 4.51833093848000E-09 4.63271303075000E-09 4.74999071948000E-09 
4.87023730703000E-09 4.99352795144000E-09 5.11993971338000E-09 5.24955160430000E-09 
5.38244463586000E-09 5.51870187053000E-09 5.65840847352000E-09 5.80165176601000E-09 
5.94852127971000E-09 6.09910881284000E-09 6.25350848753000E-09 6.41181680859000E-09 
6.57413272389000E-09 6.74055768613000E-09 6.91119571636000E-09 7.08615346889000E-09 
7.26554029801000E-09 7.44946832633000E-09 7.63805251485000E-09 7.83141073484000E-09 
8.02966384146000E-09 8.23293574938000E-09 8.44135351015000E-09 8.65504739165000E-09 
8.87415095951000E-09 9.09880116060000E-09 9.32913840861000E-09 9.56530667181000E-09 
9.80745356306000E-09 1.00557304321000E-08 1.03102924599000E-08 1.05712987562000E-08 
1.08389124583000E-08 1.11133008335000E-08 1.13946353835000E-08 1.16830919516000E-08 
1.19788508325000E-08 1.22820968850000E-08 1.25930196480000E-08 1.29118134581000E-08 
1.32386775720000E-08 1.35738162903000E-08 1.39174390857000E-08 1.42697607335000E-08 
1.46310014463000E-08 1.50013870114000E-08 1.53811489316000E-08 1.57705245706000E-08 
1.61697573008000E-08 1.65790966557000E-08 1.69987984858000E-08 1.74291251182000E-08 
1.78703455212000E-08 1.83227354719000E-08 1.87865777287000E-08 1.92621622081000E-08 
1.97497861660000E-08 2.02497543831000E-08 2.07623793559000E-08 2.12879814917000E-08 
2.18268893089000E-08 2.23794396424000E-08 2.29459778542000E-08 2.35268580492000E-08 
2.41224432962000E-08 2.47331058556000E-08 2.53592274113000E-08 2.60011993096000E-08 
2.66594228039000E-08 2.73343093053000E-08 2.80262806398000E-08 2.87357693121000E-08 
2.94632187756000E-08 3.02090837099000E-08 3.09738303050000E-08 3.17579365523000E-08 
3.25618925437000E-08 3.33862007779000E-08 3.42313764745000E-08 3.50979478956000E-08 
3.59864566768000E-08 3.68974581648000E-08 3.78315217653000E-08 3.87892312984000E-08 
3.97711853638000E-08 4.07779977146000E-08 4.18102976415000E-08 4.28687303655000E-08 
4.39539574414000E-08 4.50666571716000E-08 4.62075250295000E-08 4.73772740948000E-08 
4.85766354986000E-08 4.98063588809000E-08 5.10672128589000E-08 5.23599855072000E-08 
5.36854848510000E-08 5.50445393704000E-08 5.64379985188000E-08 5.78667332535000E-08 
5.93316365801000E-08 6.08336241111000E-08 6.23736346374000E-08 6.39526307158000E-08 
6.55715992702000E-08 6.72315522087000E-08 6.89335270559000E-08 7.06785876015000E-08 
7.24678245651000E-08 7.43023562781000E-08 7.61833293826000E-08 7.81119195478000E-08 
8.00893322056000E-08 8.21168033031000E-08 8.41956000758000E-08 8.63270218393000E-08 
8.85124008017000E-08 9.07531028959000E-08 9.30505286337000E-08 9.54061139809000E-08 
9.78213312551000E-08 1.00297690046000E-07 1.02836738158000E-07 1.05440062578000E-07 
1.08109290471000E-07 1.10846090189000E-07 1.13652172321000E-07 1.16529290762000E-07 
1.19479243802000E-07 1.22503875259000E-07 1.25605075626000E-07 1.28784783254000E-07 
1.32044985564000E-07 1.35387720288000E-07 1.38815076744000E-07 1.42329197143000E-07 
1.45932277923000E-07 1.49626571127000E-07 1.53414385808000E-07 1.57298089475000E-07 
1.61280109569000E-07 1.65362934980000E-07 1.69549117610000E-07 1.73841273957000E-07 
1.78242086759000E-07 1.82754306668000E-07 1.87380753968000E-07 1.92124320338000E-07 
1.96987970663000E-07 2.01974744883000E-07 2.07087759892000E-07 2.12330211493000E-07 
2.17705376388000E-07 2.23216614230000E-07 2.28867369722000E-07 2.34661174771000E-07 
2.40601650693000E-07 2.46692510478000E-07 2.52937561113000E-07 2.59340705958000E-07 
2.65905947186000E-07 2.72637388288000E-07 2.79539236632000E-07 2.86615806098000E-07 
2.93871519774000E-07 3.01310912716000E-07 3.08938634786000E-07 3.16759453561000E-07 
3.24778257305000E-07 3.33000058032000E-07 3.41429994636000E-07 3.50073336101000E-07 
3.58935484796000E-07 3.68021979855000E-07 3.77338500630000E-07 3.86890870252000E-07 
3.96685059262000E-07 4.06727189348000E-07 4.17023537167000E-07 4.27580538272000E-07 
4.38404791132000E-07 4.49503061258000E-07 4.60882285430000E-07 4.72549576033000E-07 
4.84512225504000E-07 4.96777710888000E-07 5.09353698513000E-07 5.22248048781000E-07 
5.35468821079000E-07 5.49024278822000E-07 5.62922894611000E-07 5.77173355534000E-07 
5.91784568593000E-07 6.06765666271000E-07 6.22126012243000E-07 6.37875207225000E-07 
6.54023094975000E-07 6.70579768450000E-07 6.87555576110000E-07 7.04961128386000E-07 
7.22807304316000E-07 7.41105258341000E-07 7.59866427277000E-07 7.79102537466000E-07 
7.98825612103000E-07 8.19047978751000E-07 8.39782277049000E-07 8.61041466606000E-07 
8.82838835110000E-07 9.05188006625000E-07 9.28102950109000E-07 9.51597988151000E-07 
9.75687805911000E-07 1.00038746031000E-06 1.02571238944000E-06 1.05167842220000E-06 
1.07830178821000E-06 1.10559912794000E-06 1.13358750312000E-06 1.16228440739000E-06 
1.19170777724000E-06 1.22187600325000E-06 1.25280794154000E-06 1.28452292558000E-06 
1.31704077825000E-06 1.35038182429000E-06 1.38456690293000E-06 1.41961738095000E-06 
1.45555516605000E-06 1.49240272050000E-06 1.53018307525000E-06 1.56891984422000E-06 
1.60863723917000E-06 1.64936008476000E-06 1.69111383409000E-06 1.73392458462000E-06 
1.77781909446000E-06 1.82282479911000E-06 1.86896982859000E-06 1.91628302506000E-06 
1.96479396080000E-06 2.01453295672000E-06 2.06553110132000E-06 2.11782027010000E-06 
2.17143314549000E-06 2.22640323728000E-06 2.28276490356000E-06 2.34055337223000E-06 
2.39980476294000E-06 2.46055610975000E-06 2.52284538422000E-06 2.58671151919000E-06 
2.65219443306000E-06 2.71933505479000E-06 2.78817534944000E-06 2.85875834446000E-06 
2.93112815650000E-06 3.00533001905000E-06 3.08141031070000E-06 3.15941658410000E-06 
3.23939759571000E-06 3.32140333628000E-06 3.40548506204000E-06 3.49169532683000E-06 
3.58008801487000E-06 3.67071837445000E-06 3.76364305251000E-06 3.85892013000000E-06 
3.95660915818000E-06 4.05677119589000E-06 4.15946884765000E-06 4.26476630285000E-06 
4.37272937582000E-06 4.48342554698000E-06 4.59692400507000E-06 4.71329569030000E-06 
4.83261333877000E-06 4.95495152788000E-06 5.08038672301000E-06 5.20899732521000E-06 
5.34086372031000E-06 5.47606832909000E-06 5.61469565884000E-06 5.75683235616000E-06 
5.90256726109000E-06 6.05199146271000E-06 6.20519835600000E-06 6.36228370026000E-06 
6.52334567894000E-06 6.68848496103000E-06 6.85780476394000E-06 7.03141091807000E-06 
7.20941193292000E-06 7.39191906491000E-06 7.57904638695000E-06 7.77091085970000E-06 
7.96763240469000E-06 8.16933397931000E-06 8.37614165360000E-06 8.58818468909000E-06 
8.80559561958000E-06 9.02851033398000E-06 9.25706816124000E-06 9.49141195745000E-06 
9.73168819510000E-06 9.97804705466000E-06 1.02306425185000E-05 1.04896324668000E-05 
1.07551787770000E-05 1.10274474240000E-05 1.13066085846000E-05 1.15928367437000E-05 
1.18863108030000E-05 1.21872141936000E-05 1.24957349898000E-05 1.28120660271000E-05 
1.31364050227000E-05 1.34689546991000E-05 1.38099229107000E-05 1.41595227736000E-05 
1.45179727992000E-05 1.48854970304000E-05 1.52623251818000E-05 1.56486927832000E-05 
1.60448413271000E-05 1.64510184191000E-05 1.68674779331000E-05 1.72944801699000E-05 
1.77322920198000E-05 1.81811871295000E-05 1.86414460729000E-05 1.91133565270000E-05 
1.95972134511000E-05 2.00933192716000E-05 2.06019840707000E-05 2.11235257805000E-05 
2.16582703815000E-05 2.22065521066000E-05 2.27687136496000E-05 2.33451063798000E-05 
2.39360905615000E-05 2.45420355789000E-05 2.51633201675000E-05 2.58003326504000E-05 
2.64534711810000E-05 2.71231439922000E-05 2.78097696514000E-05 2.85137773218000E-05 
2.92356070314000E-05 2.99757099470000E-05 3.07345486571000E-05 3.15125974606000E-05 
3.23103426633000E-05 3.31282828820000E-05 3.39669293560000E-05 3.48268062665000E-05 
3.57084510646000E-05 3.66124148070000E-05 3.75392625006000E-05 3.84895734552000E-05 
3.94639416461000E-05 4.04629760852000E-05 4.14873012016000E-05 4.25375572318000E-05 
4.36144006199000E-05 4.47185044282000E-05 4.58505587575000E-05 4.70112711785000E-05 
4.82013671744000E-05 4.94215905939000E-05 5.06727041163000E-05 5.19554897283000E-05 
5.32707492127000E-05 5.46193046494000E-05 5.60019989296000E-05 5.74196962821000E-05 
5.88732828139000E-05 6.03636670640000E-05 6.18917805711000E-05 6.34585784557000E-05 
6.50650400176000E-05 6.67121693476000E-05 6.84009959551000E-05 7.01325754116000E-05 
7.19079900109000E-05 7.37283494447000E-05 7.55947914969000E-05 7.75084827547000E-05 
7.94706193373000E-05 8.14824276440000E-05 8.35451651204000E-05 8.56601210447000E-05 
8.78286173330000E-05 9.00520093663000E-05 9.23316868369000E-05 9.46690746174000E-05 
9.70656336513000E-05 9.95228618659000E-05 1.02042295109000E-04 1.04625508108000E-04 
1.07274115456000E-04 1.09989772618000E-04 1.12774176968000E-04 1.15629068850000E-04 