<UPF version="2.0.1">
  <PP_INFO>
Generated using Vanderbilt code, version   7  3  6
Author: kfg        Generation date:   31    3   15
Automatically converted from original USPP format to UPF.v1.

Futher converted to UPF.v2 format.
Convert Q_IJ to Q_IJL use the same routine as 'upflib/upf_to_internal.f90' of QE.
The conversion is done by using PseudoPotentialIO.jl package.
Converted by: JYU on 2024-04-30

1        The Pseudo was generated with a Scalar-Relativistic Calculation
1.80000000000E+00    Local Potential cutoff radius
nl pn  l   occ               Rcut            Rcut US             E pseu
3S  3  0  2.00      0.00000000000      1.80000000000     -5.55524566700
3P  3  1  6.00      0.00000000000      1.80000000000     -3.78919170400
4S  4  0  2.00      0.00000000000      1.80000000000     -0.87721941400
3D  3  2  1.00      0.00000000000      1.80000000000     -1.16623785300
</PP_INFO>
  <PP_HEADER element="Ti" pseudo_type="US" relativistic="scalar" is_ultrasoft="T" is_paw="F" is_coulomb="F" has_so="F" has_wfc="F" has_gipaw="F" core_correction="T" functional="PBE" z_valence="12.0" total_psenergy="-118.04188664" wfc_cutoff="0.0" rho_cutoff="0.0" l_max="2" mesh_size="851" number_of_wfc="4" number_of_proj="6"/>
  <PP_MESH>
    <PP_R>
0.00000000000000E+00 1.92594586727000E-06 3.88481309127000E-06 5.87716441663000E-06 
7.90357220736000E-06 9.96461861118000E-06 1.20608957269000E-05 1.41930057742000E-05 
1.63615612673000E-05 1.85671851900000E-05 2.08105111754000E-05 2.30921836878000E-05 
2.54128582075000E-05 2.77732014193000E-05 3.01738914042000E-05 3.26156178339000E-05 
3.50990821692000E-05 3.76249978614000E-05 4.01940905572000E-05 4.28070983071000E-05 
4.54647717778000E-05 4.81678744673000E-05 5.09171829249000E-05 5.37134869735000E-05 
5.65575899374000E-05 5.94503088721000E-05 6.23924747999000E-05 6.53849329480000E-05 
6.84285429920000E-05 7.15241793019000E-05 7.46727311942000E-05 7.78751031870000E-05 
8.11322152597000E-05 8.44450031176000E-05 8.78144184605000E-05 9.12414292564000E-05 
9.47270200190000E-05 9.82721920912000E-05 1.01877963932000E-04 1.05545371411000E-04 
1.09275468102000E-04 1.13069325590000E-04 1.16928033777000E-04 1.20852701195000E-04 
1.24844455326000E-04 1.28904442922000E-04 1.33033830341000E-04 1.37233803874000E-04 
1.41505570093000E-04 1.45850356194000E-04 1.50269410349000E-04 1.54764002069000E-04 
1.59335422560000E-04 1.63984985106000E-04 1.68714025434000E-04 1.73523902106000E-04 
1.78415996908000E-04 1.83391715242000E-04 1.88452486538000E-04 1.93599764655000E-04 
1.98835028309000E-04 2.04159781488000E-04 2.09575553892000E-04 2.15083901367000E-04 
2.20686406354000E-04 2.26384678345000E-04 2.32180354343000E-04 2.38075099333000E-04 
2.44070606763000E-04 2.50168599025000E-04 2.56370827953000E-04 2.62679075330000E-04 
2.69095153392000E-04 2.75620905353000E-04 2.82258205937000E-04 2.89008961912000E-04 
2.95875112638000E-04 3.02858630628000E-04 3.09961522113000E-04 3.17185827614000E-04 
3.24533622535000E-04 3.32007017756000E-04 3.39608160239000E-04 3.47339233644000E-04 
3.55202458959000E-04 3.63200095136000E-04 3.71334439743000E-04 3.79607829618000E-04 
3.88022641547000E-04 3.96581292942000E-04 4.05286242538000E-04 4.14139991098000E-04 
4.23145082134000E-04 4.32304102633000E-04 4.41619683806000E-04 4.51094501837000E-04 
4.60731278660000E-04 4.70532782733000E-04 4.80501829839000E-04 4.90641283893000E-04 
5.00954057762000E-04 5.11443114109000E-04 5.22111466235000E-04 5.32962178952000E-04 
5.43998369459000E-04 5.55223208240000E-04 5.66639919976000E-04 5.78251784464000E-04 
5.90062137571000E-04 6.02074372181000E-04 6.14291939178000E-04 6.26718348431000E-04 
6.39357169808000E-04 6.52212034198000E-04 6.65286634554000E-04 6.78584726956000E-04 
6.92110131688000E-04 7.05866734339000E-04 7.19858486912000E-04 7.34089408969000E-04 
7.48563588777000E-04 7.63285184489000E-04 7.78258425334000E-04 7.93487612835000E-04 
8.08977122041000E-04 8.24731402790000E-04 8.40754980982000E-04 8.57052459880000E-04 
8.73628521435000E-04 8.90487927628000E-04 9.07635521841000E-04 9.25076230246000E-04 
9.42815063221000E-04 9.60857116788000E-04 9.79207574082000E-04 9.97871706832000E-04 
1.01685487688000E-03 1.03616253774000E-03 1.05580023610000E-03 1.07577361352000E-03 
1.09608840794000E-03 1.11675045543000E-03 1.13776569178000E-03 1.15914015427000E-03 
1.18087998336000E-03 1.20299142449000E-03 1.22548082985000E-03 1.24835466020000E-03 
1.27161948677000E-03 1.29528199307000E-03 1.31934897690000E-03 1.34382735222000E-03 
1.36872415121000E-03 1.39404652623000E-03 1.41980175192000E-03 1.44599722724000E-03 
1.47264047765000E-03 1.49973915725000E-03 1.52730105095000E-03 1.55533407676000E-03 
1.58384628803000E-03 1.61284587575000E-03 1.64234117096000E-03 1.67234064707000E-03 
1.70285292235000E-03 1.73388676240000E-03 1.76545108264000E-03 1.79755495088000E-03 
1.83020758994000E-03 1.86341838029000E-03 1.89719686276000E-03 1.93155274124000E-03 
1.96649588552000E-03 2.00203633408000E-03 2.03818429701000E-03 2.07495015892000E-03 
2.11234448192000E-03 2.15037800869000E-03 2.18906166552000E-03 2.22840656548000E-03 
2.26842401158000E-03 2.30912550009000E-03 2.35052272373000E-03 2.39262757514000E-03 
2.43545215022000E-03 2.47900875165000E-03 2.52330989238000E-03 2.56836829930000E-03 
2.61419691679000E-03 2.66080891054000E-03 2.70821767127000E-03 2.75643681861000E-03 
2.80548020497000E-03 2.85536191957000E-03 2.90609629247000E-03 2.95769789867000E-03 
3.01018156231000E-03 3.06356236094000E-03 3.11785562982000E-03 3.17307696635000E-03 
3.22924223457000E-03 3.28636756966000E-03 3.34446938264000E-03 3.40356436501000E-03 
3.46366949364000E-03 3.52480203556000E-03 3.58697955296000E-03 3.65021990825000E-03 
3.71454126915000E-03 3.77996211395000E-03 3.84650123679000E-03 3.91417775307000E-03 
3.98301110494000E-03 4.05302106691000E-03 4.12422775146000E-03 4.19665161491000E-03 
4.27031346323000E-03 4.34523445805000E-03 4.42143612271000E-03 4.49894034847000E-03 
4.57776940082000E-03 4.65794592579000E-03 4.73949295657000E-03 4.82243392003000E-03 
4.90679264350000E-03 4.99259336163000E-03 5.07986072328000E-03 5.16861979869000E-03 
5.25889608662000E-03 5.35071552170000E-03 5.44410448188000E-03 5.53908979600000E-03 
5.63569875150000E-03 5.73395910227000E-03 5.83389907660000E-03 5.93554738531000E-03 
6.03893323000000E-03 6.14408631141000E-03 6.25103683801000E-03 6.35981553459000E-03 
6.47045365117000E-03 6.58298297195000E-03 6.69743582443000E-03 6.81384508868000E-03 
6.93224420684000E-03 7.05266719269000E-03 7.17514864142000E-03 7.29972373958000E-03 
7.42642827518000E-03 7.55529864799000E-03 7.68637187997000E-03 7.81968562592000E-03 
7.95527818430000E-03 8.09318850823000E-03 8.23345621668000E-03 8.37612160585000E-03 
8.52122566074000E-03 8.66881006694000E-03 8.81891722260000E-03 8.97159025058000E-03 
9.12687301091000E-03 9.28481011331000E-03 9.44544693006000E-03 9.60882960900000E-03 
9.77500508682000E-03 9.94402110252000E-03 1.01159262111000E-02 1.02907697976000E-02 
1.04686020913000E-02 1.06494741798000E-02 1.08334380242000E-02 1.10205464738000E-02 
1.12108532812000E-02 1.14044131179000E-02 1.16012815898000E-02 1.18015152536000E-02 
1.20051716324000E-02 1.22123092327000E-02 1.24229875612000E-02 1.26372671418000E-02 
1.28552095327000E-02 1.30768773446000E-02 1.33023342584000E-02 1.35316450435000E-02 
1.37648755765000E-02 1.40020928598000E-02 1.42433650416000E-02 1.44887614347000E-02 
1.47383525365000E-02 1.49922100500000E-02 1.52504069033000E-02 1.55130172715000E-02 
1.57801165975000E-02 1.60517816136000E-02 1.63280903641000E-02 1.66091222270000E-02 
1.68949579375000E-02 1.71856796104000E-02 1.74813707647000E-02 1.77821163465000E-02 
1.80880027544000E-02 1.83991178635000E-02 1.87155510511000E-02 1.90373932226000E-02 
1.93647368367000E-02 1.96976759331000E-02 2.00363061587000E-02 2.03807247954000E-02 
2.07310307881000E-02 2.10873247727000E-02 2.14497091058000E-02 2.18182878934000E-02 
2.21931670209000E-02 2.25744541839000E-02 2.29622589188000E-02 2.33566926345000E-02 
2.37578686440000E-02 2.41659021975000E-02 2.45809105152000E-02 2.50030128209000E-02 
2.54323303764000E-02 2.58689865163000E-02 2.63131066836000E-02 2.67648184653000E-02 
2.72242516294000E-02 2.76915381624000E-02 2.81668123065000E-02 2.86502105987000E-02 
2.91418719101000E-02 2.96419374855000E-02 3.01505509840000E-02 3.06678585204000E-02 
3.11940087072000E-02 3.17291526972000E-02 3.22734442268000E-02 3.28270396604000E-02 
3.33900980354000E-02 3.39627811075000E-02 3.45452533975000E-02 3.51376822384000E-02 
3.57402378235000E-02 3.63530932554000E-02 3.69764245956000E-02 3.76104109151000E-02 
3.82552343460000E-02 3.89110801335000E-02 3.95781366894000E-02 4.02565956462000E-02 
4.09466519120000E-02 4.16485037266000E-02 4.23623527184000E-02 4.30884039625000E-02 
4.38268660394000E-02 4.45779510948000E-02 4.53418749011000E-02 4.61188569186000E-02 
4.69091203594000E-02 4.77128922508000E-02 4.85304035010000E-02 4.93618889650000E-02 
5.02075875126000E-02 5.10677420966000E-02 5.19425998228000E-02 5.28324120208000E-02 
5.37374343165000E-02 5.46579267054000E-02 5.55941536269000E-02 5.65463840411000E-02 
5.75148915052000E-02 5.84999542528000E-02 5.95018552733000E-02 6.05208823935000E-02 
6.15573283601000E-02 6.26114909240000E-02 6.36836729258000E-02 6.47741823825000E-02 
6.58833325765000E-02 6.70114421451000E-02 6.81588351723000E-02 6.93258412821000E-02 
7.05127957326000E-02 7.17200395129000E-02 7.29479194408000E-02 7.41967882624000E-02 
7.54670047535000E-02 7.67589338229000E-02 7.80729466167000E-02 7.94094206253000E-02 
8.07687397919000E-02 8.21512946225000E-02 8.35574822985000E-02 8.49877067903000E-02 
8.64423789738000E-02 8.79219167480000E-02 8.94267451557000E-02 9.09572965048000E-02 
9.25140104932000E-02 9.40973343346000E-02 9.57077228874000E-02 9.73456387851000E-02 
9.90115525691000E-02 1.00705942824000E-01 1.02429296316000E-01 1.04182108131000E-01 
1.05964881817000E-01 1.07778129532000E-01 1.09622372185000E-01 1.11498139593000E-01 
1.13405970627000E-01 1.15346413370000E-01 1.17320025273000E-01 1.19327373318000E-01 
1.21369034176000E-01 1.23445594376000E-01 1.25557650476000E-01 1.27705809227000E-01 
1.29890687753000E-01 1.32112913729000E-01 1.34373125557000E-01 1.36671972551000E-01 
1.39010115126000E-01 1.41388224986000E-01 1.43806985314000E-01 1.46267090975000E-01 
1.48769248709000E-01 1.51314177337000E-01 1.53902607969000E-01 1.56535284209000E-01 
1.59212962376000E-01 1.61936411714000E-01 1.64706414617000E-01 1.67523766854000E-01 
1.70389277796000E-01 1.73303770648000E-01 1.76268082688000E-01 1.79283065506000E-01 
1.82349585246000E-01 1.85468522863000E-01 1.88640774364000E-01 1.91867251078000E-01 
1.95148879909000E-01 1.98486603604000E-01 2.01881381028000E-01 2.05334187434000E-01 
2.08846014747000E-01 2.12417871847000E-01 2.16050784859000E-01 2.19745797448000E-01 
2.23503971121000E-01 2.27326385528000E-01 2.31214138775000E-01 2.35168347738000E-01 
2.39190148384000E-01 2.43280696100000E-01 2.47441166019000E-01 2.51672753366000E-01 
2.55976673793000E-01 2.60354163733000E-01 2.64806480754000E-01 2.69334903921000E-01 
2.73940734162000E-01 2.78625294643000E-01 2.83389931147000E-01 2.88236012463000E-01 
2.93164930776000E-01 2.98178102068000E-01 3.03276966528000E-01 3.08462988959000E-01 
3.13737659206000E-01 3.19102492579000E-01 3.24559030292000E-01 3.30108839902000E-01 
3.35753515762000E-01 3.41494679477000E-01 3.47333980374000E-01 3.53273095970000E-01 
3.59313732459000E-01 3.65457625198000E-01 3.71706539209000E-01 3.78062269684000E-01 
3.84526642502000E-01 3.91101514750000E-01 3.97788775264000E-01 4.04590345164000E-01 
4.11508178409000E-01 4.18544262358000E-01 4.25700618343000E-01 4.32979302246000E-01 
4.40382405092000E-01 4.47912053649000E-01 4.55570411040000E-01 4.63359677362000E-01 
4.71282090322000E-01 4.79339925874000E-01 4.87535498879000E-01 4.95871163767000E-01 
5.04349315213000E-01 5.12972388826000E-01 5.21742861847000E-01 5.30663253865000E-01 
5.39736127535000E-01 5.48964089318000E-01 5.58349790229000E-01 5.67895926598000E-01 
5.77605240846000E-01 5.87480522271000E-01 5.97524607849000E-01 6.07740383053000E-01 
6.18130782676000E-01 6.28698791680000E-01 6.39447446049000E-01 6.50379833664000E-01 
6.61499095187000E-01 6.72808424968000E-01 6.84311071958000E-01 6.96010340645000E-01 
7.07909592003000E-01 7.20012244456000E-01 7.32321774862000E-01 7.44841719511000E-01 
7.57575675141000E-01 7.70527299970000E-01 7.83700314751000E-01 7.97098503834000E-01 
8.10725716262000E-01 8.24585866867000E-01 8.38682937404000E-01 8.53020977688000E-01 
8.67604106759000E-01 8.82436514070000E-01 8.97522460684000E-01 9.12866280501000E-01 
9.28472381503000E-01 9.44345247022000E-01 9.60489437025000E-01 9.76909589424000E-01 
9.93610421413000E-01 1.01059673082000E+00 1.02787339747000E+00 1.04544538464000E+00 
1.06331774039000E+00 1.08149559913000E+00 1.09998418299000E+00 1.11878880340000E+00 
1.13791486254000E+00 1.15736785497000E+00 1.17715336916000E+00 1.19727708910000E+00 
1.21774479595000E+00 1.23856236968000E+00 1.25973579078000E+00 1.28127114196000E+00 
1.30317460992000E+00 1.32545248710000E+00 1.34811117349000E+00 1.37115717850000E+00 
1.39459712281000E+00 1.41843774025000E+00 1.44268587978000E+00 1.46734850741000E+00 
1.49243270823000E+00 1.51794568847000E+00 1.54389477749000E+00 1.57028742998000E+00 
1.59713122803000E+00 1.62443388334000E+00 1.65220323944000E+00 1.68044727392000E+00 
1.70917410076000E+00 1.73839197261000E+00 1.76810928321000E+00 1.79833456975000E+00 
1.82907651539000E+00 1.86034395168000E+00 1.89214586116000E+00 1.92449137990000E+00 
1.95738980014000E+00 1.99085057296000E+00 2.02488331099000E+00 2.05949779118000E+00 
2.09470395760000E+00 2.13051192431000E+00 2.16693197823000E+00 2.20397458214000E+00 
2.24165037767000E+00 2.27997018835000E+00 2.31894502271000E+00 2.35858607747000E+00 
2.39890474073000E+00 2.43991259528000E+00 2.48162142186000E+00 2.52404320263000E+00 
2.56719012454000E+00 2.61107458286000E+00 2.65570918474000E+00 2.70110675286000E+00 
2.74728032904000E+00 2.79424317807000E+00 2.84200879146000E+00 2.89059089135000E+00 
2.94000343444000E+00 2.99026061599000E+00 3.04137687392000E+00 3.09336689294000E+00 
3.14624560877000E+00 3.20002821246000E+00 3.25473015469000E+00 3.31036715029000E+00 
3.36695518267000E+00 3.42451050850000E+00 3.48304966229000E+00 3.54258946123000E+00 
3.60314700993000E+00 3.66473970540000E+00 3.72738524205000E+00 3.79110161672000E+00 
3.85590713389000E+00 3.92182041094000E+00 3.98886038346000E+00 4.05704631076000E+00 
4.12639778132000E+00 4.19693471848000E+00 4.26867738614000E+00 4.34164639457000E+00 
4.41586270637000E+00 4.49134764245000E+00 4.56812288816000E+00 4.64621049954000E+00 
4.72563290966000E+00 4.80641293504000E+00 4.88857378222000E+00 4.97213905441000E+00 
5.05713275830000E+00 5.14357931095000E+00 5.23150354677000E+00 5.32093072469000E+00 
5.41188653541000E+00 5.50439710878000E+00 5.59848902129000E+00 5.69418930372000E+00 
5.79152544893000E+00 5.89052541969000E+00 5.99121765679000E+00 6.09363108715000E+00 
6.19779513218000E+00 6.30373971619000E+00 6.41149527499000E+00 6.52109276470000E+00 
6.63256367053000E+00 6.74594001593000E+00 6.86125437172000E+00 6.97853986549000E+00 
7.09783019109000E+00 7.21915961833000E+00 7.34256300279000E+00 7.46807579589000E+00 
7.59573405502000E+00 7.72557445392000E+00 7.85763429324000E+00 7.99195151121000E+00 
8.12856469457000E+00 8.26751308963000E+00 8.40883661359000E+00 8.55257586596000E+00 
8.69877214024000E+00 8.84746743580000E+00 8.99870446992000E+00 9.15252669006000E+00 
9.30897828638000E+00 9.46810420440000E+00 9.62995015790000E+00 9.79456264211000E+00 
9.96198894700000E+00 1.01322771709000E+01 1.03054762343000E+01 1.04816358941000E+01 
1.06608067573000E+01 1.08430402964000E+01 1.10283888635000E+01 1.12169057057000E+01 
1.14086449802000E+01 1.16036617701000E+01 1.18020120997000E+01 1.20037529515000E+01 
1.22089422815000E+01 1.24176390368000E+01 1.26299031719000E+01 1.28457956661000E+01 
1.30653785412000E+01 1.32887148790000E+01 1.35158688399000E+01 1.37469056808000E+01 
1.39818917740000E+01 1.42208946265000E+01 1.44639828992000E+01 1.47112264267000E+01 
1.49626962372000E+01 1.52184645732000E+01 1.54786049119000E+01 1.57431919866000E+01 
1.60123018082000E+01 1.62860116866000E+01 1.65644002533000E+01 1.68475474841000E+01 
1.71355347216000E+01 1.74284446990000E+01 1.77263615637000E+01 1.80293709015000E+01 
1.83375597609000E+01 1.86510166788000E+01 1.89698317053000E+01 1.92940964297000E+01 
1.96239040070000E+01 1.99593491846000E+01 2.03005283293000E+01 2.06475394553000E+01 
2.10004822523000E+01 2.13594581138000E+01 2.17245701666000E+01 2.20959233005000E+01 
2.24736241979000E+01 2.28577813650000E+01 2.32485051627000E+01 2.36459078385000E+01 
2.40501035584000E+01 2.44612084400000E+01 2.48793405858000E+01 2.53046201172000E+01 
2.57371692085000E+01 2.61771121230000E+01 2.66245752475000E+01 2.70796871297000E+01 
2.75425785144000E+01 2.80133823812000E+01 2.84922339831000E+01 2.89792708848000E+01 
2.94746330027000E+01 2.99784626446000E+01 3.04909045511000E+01 3.10121059369000E+01 
3.15422165329000E+01 3.20813886297000E+01 3.26297771211000E+01 3.31875395483000E+01 
3.37548361459000E+01 3.43318298870000E+01 3.49186865309000E+01 3.55155746701000E+01 
3.61226657790000E+01 3.67401342632000E+01 3.73681575093000E+01 3.80069159364000E+01 
3.86565930473000E+01 3.93173754817000E+01 3.99894530697000E+01 4.06730188860000E+01 
4.13682693060000E+01 4.20754040616000E+01 4.27946262990000E+01 4.35261426368000E+01 
4.42701632254000E+01 4.50269018077000E+01 4.57965757799000E+01 4.65794062544000E+01 
4.73756181235000E+01 4.81854401232000E+01 4.90091048998000E+01 4.98468490762000E+01 
5.06989133202000E+01 5.15655424132000E+01 5.24469853212000E+01 5.33434952654000E+01 
5.42553297960000E+01 5.51827508654000E+01 5.61260249036000E+01 5.70854228950000E+01 
5.80612204561000E+01 5.90536979148000E+01 6.00631403904000E+01 6.10898378764000E+01 
6.21340853230000E+01 6.31961827224000E+01 6.42764351946000E+01 6.53751530751000E+01 
6.64926520044000E+01 6.76292530183000E+01 6.87852826403000E+01 6.99610729753000E+01 
7.11569618051000E+01 7.23732926855000E+01 7.36104150448000E+01 7.48686842842000E+01 
7.61484618803000E+01 7.74501154882000E+01 7.87740190480000E+01 8.01205528915000E+01 
8.14901038518000E+01 8.28830653744000E+01 8.42998376302000E+01 8.57408276304000E+01 
8.72064493436000E+01 8.86971238146000E+01 9.02132792853000E+01 9.17553513177000E+01 
9.33237829194000E+01 9.49190246704000E+01 9.65415348528000E+01 9.81917795824000E+01 
9.98702329426000E+01 1.01577377120000E+02 1.03313702545000E+02 1.05079708030000E+02 
1.06875900914000E+02 1.08702797209000E+02 1.10560921746000E+02 1.12450808329000E+02 
1.14372999886000E+02 1.16328048624000E+02 1.18316516192000E+02 1.20338973838000E+02 
1.22396002575000E+02 1.24488193348000E+02 1.26616147202000E+02 1.28780475457000E+02 
1.30981799883000E+02 1.33220752878000E+02 1.35497977650000E+02 1.37814128401000E+02 
1.40169870516000E+02 1.42565880756000E+02 1.45002847446000E+02 1.47481470681000E+02 
1.50002462522000E+02 1.52566547199000E+02 1.55174461325000E+02 1.57826954104000E+02 
1.60524787545000E+02 1.63268736683000E+02 1.66059589803000E+02 1.68898148661000E+02 
1.71785228722000E+02 1.74721659387000E+02 1.77708284236000E+02 1.80745961269000E+02 
1.83835563152000E+02 1.86977977466000E+02 1.90174106968000E+02 1.93424869843000E+02 
1.96731199973000E+02 2.00094047201000E+02 2.03514377610000E+02 
</PP_R>
    <PP_RAB>
1.90967039805000E-06 1.94231354834000E-06 1.97551468773000E-06 2.00928335426000E-06 
2.04362924902000E-06 2.07856223892000E-06 2.11409235952000E-06 2.15022981795000E-06 
2.18698499580000E-06 2.22436845212000E-06 2.26239092645000E-06 2.30106334191000E-06 
2.34039680834000E-06 2.38040262549000E-06 2.42109228625000E-06 2.46247747998000E-06 
2.50457009583000E-06 2.54738222621000E-06 2.59092617020000E-06 2.63521443715000E-06 
2.68025975021000E-06 2.72607505004000E-06 2.77267349847000E-06 2.82006848235000E-06 
2.86827361733000E-06 2.91730275181000E-06 2.96716997093000E-06 3.01788960056000E-06 
3.06947621147000E-06 3.12194462350000E-06 3.17530990981000E-06 3.22958740122000E-06 
3.28479269058000E-06 3.34094163733000E-06 3.39805037196000E-06 3.45613530070000E-06 
3.51521311024000E-06 3.57530077248000E-06 3.63641554944000E-06 3.69857499823000E-06 
3.76179697604000E-06 3.82609964533000E-06 3.89150147901000E-06 3.95802126577000E-06 
4.02567811544000E-06 4.09449146453000E-06 4.16448108179000E-06 4.23566707387000E-06 
4.30806989115000E-06 4.38171033353000E-06 4.45660955651000E-06 4.53278907718000E-06 
4.61027078043000E-06 4.68907692526000E-06 4.76923015116000E-06 4.85075348459000E-06 
4.93367034564000E-06 5.01800455470000E-06 5.10378033936000E-06 5.19102234136000E-06 
5.27975562362000E-06 5.37000567751000E-06 5.46179843012000E-06 5.55516025172000E-06 
5.65011796337000E-06 5.74669884457000E-06 5.84493064114000E-06 5.94484157319000E-06 
6.04646034318000E-06 6.14981614423000E-06 6.25493866845000E-06 6.36185811551000E-06 
6.47060520130000E-06 6.58121116675000E-06 6.69370778681000E-06 6.80812737960000E-06 
6.92450281564000E-06 7.04286752734000E-06 7.16325551860000E-06 7.28570137456000E-06 
7.41024027153000E-06 7.53690798714000E-06 7.66574091057000E-06 7.79677605302000E-06 
7.93005105836000E-06 8.06560421392000E-06 8.20347446149000E-06 8.34370140853000E-06 
8.48632533953000E-06 8.63138722757000E-06 8.77892874615000E-06 8.92899228107000E-06 
9.08162094269000E-06 9.23685857828000E-06 9.39474978459000E-06 9.55533992071000E-06 
9.71867512110000E-06 9.88480230878000E-06 1.00537692089000E-05 1.02256243623000E-05 
1.04004171398000E-05 1.05781977558000E-05 1.07590172834000E-05 1.09429276684000E-05 
1.11299817448000E-05 1.13202332496000E-05 1.15137368383000E-05 1.17105481008000E-05 
1.19107235772000E-05 1.21143207740000E-05 1.23213981807000E-05 1.25320152867000E-05 
1.27462325982000E-05 1.29641116556000E-05 1.31857150515000E-05 1.34111064481000E-05 
1.36403505962000E-05 1.38735133529000E-05 1.41106617016000E-05 1.43518637704000E-05 
1.45971888519000E-05 1.48467074233000E-05 1.51004911664000E-05 1.53586129885000E-05 
1.56211470428000E-05 1.58881687504000E-05 1.61597548215000E-05 1.64359832774000E-05 
1.67169334732000E-05 1.70026861206000E-05 1.72933233106000E-05 1.75889285378000E-05 
1.78895867238000E-05 1.81953842419000E-05 1.85064089418000E-05 1.88227501749000E-05 
1.91444988198000E-05 1.94717473088000E-05 1.98045896540000E-05 2.01431214746000E-05 
2.04874400242000E-05 2.08376442189000E-05 2.11938346655000E-05 2.15561136907000E-05 
2.19245853702000E-05 2.22993555589000E-05 2.26805319209000E-05 2.30682239608000E-05 
2.34625430551000E-05 2.38636024840000E-05 2.42715174641000E-05 2.46864051815000E-05 
2.51083848254000E-05 2.55375776224000E-05 2.59741068712000E-05 2.64180979784000E-05 
2.68696784939000E-05 2.73289781480000E-05 2.77961288888000E-05 2.82712649195000E-05 
2.87545227375000E-05 2.92460411735000E-05 2.97459614312000E-05 3.02544271280000E-05 
3.07715843363000E-05 3.12975816252000E-05 3.18325701038000E-05 3.23767034638000E-05 
3.29301380241000E-05 3.34930327759000E-05 3.40655494278000E-05 3.46478524530000E-05 
3.52401091356000E-05 3.58424896197000E-05 3.64551669575000E-05 3.70783171593000E-05 
3.77121192442000E-05 3.83567552911000E-05 3.90124104916000E-05 3.96792732027000E-05 
4.03575350012000E-05 4.10473907385000E-05 4.17490385969000E-05 4.24626801462000E-05 
4.31885204018000E-05 4.39267678836000E-05 4.46776346757000E-05 4.54413364878000E-05 
4.62180927165000E-05 4.70081265089000E-05 4.78116648264000E-05 4.86289385100000E-05 
4.94601823466000E-05 5.03056351365000E-05 5.11655397620000E-05 5.20401432569000E-05 
5.29296968779000E-05 5.38344561767000E-05 5.47546810729000E-05 5.56906359295000E-05 
5.66425896281000E-05 5.76108156466000E-05 5.85955921376000E-05 5.95972020084000E-05 
6.06159330021000E-05 6.16520777803000E-05 6.27059340075000E-05 6.37778044361000E-05 
6.48679969938000E-05 6.59768248718000E-05 6.71046066148000E-05 6.82516662128000E-05 
6.94183331937000E-05 7.06049427185000E-05 7.18118356771000E-05 7.30393587864000E-05 
7.42878646901000E-05 7.55577120598000E-05 7.68492656981000E-05 7.81628966434000E-05 
7.94989822763000E-05 8.08579064284000E-05 8.22400594925000E-05 8.36458385341000E-05 
8.50756474066000E-05 8.65298968663000E-05 8.80090046909000E-05 8.95133957996000E-05 
9.10435023746000E-05 9.25997639862000E-05 9.41826277180000E-05 9.57925482963000E-05 
9.74299882201000E-05 9.90954178941000E-05 1.00789315764000E-04 1.02512168454000E-04 
1.04264470906000E-04 1.06046726524000E-04 1.07859447313000E-04 1.09703154035000E-04 
1.11578376350000E-04 1.13485652974000E-04 1.15425531829000E-04 1.17398570206000E-04 
1.19405334921000E-04 1.21446402478000E-04 1.23522359236000E-04 1.25633801577000E-04 
1.27781336079000E-04 1.29965579686000E-04 1.32187159889000E-04 1.34446714905000E-04 
1.36744893861000E-04 1.39082356978000E-04 1.41459775766000E-04 1.43877833209000E-04 
1.46337223970000E-04 1.48838654584000E-04 1.51382843662000E-04 1.53970522103000E-04 
1.56602433295000E-04 1.59279333336000E-04 1.62001991247000E-04 1.64771189195000E-04 
1.67587722717000E-04 1.70452400949000E-04 1.73366046858000E-04 1.76329497477000E-04 
1.79343604148000E-04 1.82409232767000E-04 1.85527264028000E-04 1.88698593682000E-04 
1.91924132791000E-04 1.95204807989000E-04 1.98541561751000E-04 2.01935352662000E-04 
2.05387155692000E-04 2.08897962478000E-04 2.12468781605000E-04 2.16100638903000E-04 
2.19794577732000E-04 2.23551659290000E-04 2.27372962914000E-04 2.31259586390000E-04 
2.35212646270000E-04 2.39233278192000E-04 2.43322637206000E-04 2.47481898104000E-04 
2.51712255763000E-04 2.56014925482000E-04 2.60391143336000E-04 2.64842166526000E-04 
2.69369273745000E-04 2.73973765544000E-04 2.78656964705000E-04 2.83420216619000E-04 
2.88264889677000E-04 2.93192375660000E-04 2.98204090138000E-04 3.03301472882000E-04 
3.08485988269000E-04 3.13759125711000E-04 3.19122400079000E-04 3.24577352136000E-04 
3.30125548987000E-04 3.35768584519000E-04 3.41508079868000E-04 3.47345683880000E-04 
3.53283073586000E-04 3.59321954682000E-04 3.65464062023000E-04 3.71711160116000E-04 
3.78065043633000E-04 3.84527537921000E-04 3.91100499530000E-04 3.97785816745000E-04 
4.04585410127000E-04 4.11501233068000E-04 4.18535272350000E-04 4.25689548718000E-04 
4.32966117455000E-04 4.40367068980000E-04 4.47894529442000E-04 4.55550661335000E-04 
4.63337664117000E-04 4.71257774845000E-04 4.79313268812000E-04 4.87506460207000E-04 
4.95839702773000E-04 5.04315390492000E-04 5.12935958263000E-04 5.21703882609000E-04 
5.30621682385000E-04 5.39691919503000E-04 5.48917199665000E-04 5.58300173117000E-04 
5.67843535405000E-04 5.77550028153000E-04 5.87422439847000E-04 5.97463606642000E-04 
6.07676413169000E-04 6.18063793371000E-04 6.28628731340000E-04 6.39374262180000E-04 
6.50303472872000E-04 6.61419503169000E-04 6.72725546489000E-04 6.84224850842000E-04 
6.95920719753000E-04 7.07816513221000E-04 7.19915648676000E-04 7.32221601966000E-04 
7.44737908354000E-04 7.57468163531000E-04 7.70416024653000E-04 7.83585211392000E-04 
7.96979506998000E-04 8.10602759395000E-04 8.24458882279000E-04 8.38551856245000E-04 
8.52885729933000E-04 8.67464621188000E-04 8.82292718242000E-04 8.97374280920000E-04 
9.12713641865000E-04 9.28315207777000E-04 9.44183460685000E-04 9.60322959230000E-04 
9.76738339978000E-04 9.93434318751000E-04 1.01041569198000E-03 1.02768733808000E-03 
1.04525421887000E-03 1.06312138097000E-03 1.08129395728000E-03 1.09977716841000E-03 
1.11857632424000E-03 1.13769682540000E-03 1.15714416484000E-03 1.17692392942000E-03 
1.19704180146000E-03 1.21750356045000E-03 1.23831508465000E-03 1.25948235281000E-03 
1.28101144588000E-03 1.30290854875000E-03 1.32517995204000E-03 1.34783205388000E-03 
1.37087136179000E-03 1.39430449451000E-03 1.41813818393000E-03 1.44237927701000E-03 
1.46703473775000E-03 1.49211164918000E-03 1.51761721541000E-03 1.54355876370000E-03 
1.56994374655000E-03 1.59677974387000E-03 1.62407446510000E-03 1.65183575150000E-03 
1.68007157835000E-03 1.70879005725000E-03 1.73799943847000E-03 1.76770811329000E-03 
1.79792461645000E-03 1.82865762856000E-03 1.85991597862000E-03 1.89170864655000E-03 
1.92404476577000E-03 1.95693362582000E-03 1.99038467503000E-03 2.02440752324000E-03 
2.05901194456000E-03 2.09420788017000E-03 2.13000544118000E-03 2.16641491153000E-03 
2.20344675096000E-03 2.24111159801000E-03 2.27942027305000E-03 2.31838378143000E-03 
2.35801331661000E-03 2.39832026338000E-03 2.43931620115000E-03 2.48101290727000E-03 
2.52342236038000E-03 2.56655674391000E-03 2.61042844953000E-03 2.65505008072000E-03 
2.70043445643000E-03 2.74659461470000E-03 2.79354381645000E-03 2.84129554929000E-03 
2.88986353135000E-03 2.93926171529000E-03 2.98950429223000E-03 3.04060569592000E-03 
3.09258060678000E-03 3.14544395620000E-03 3.19921093081000E-03 3.25389697681000E-03 
3.30951780445000E-03 3.36608939251000E-03 3.42362799291000E-03 3.48215013539000E-03 
3.54167263222000E-03 3.60221258306000E-03 3.66378737987000E-03 3.72641471190000E-03 
3.79011257076000E-03 3.85489925563000E-03 3.92079337845000E-03 3.98781386934000E-03 
4.05597998199000E-03 4.12531129920000E-03 4.19582773852000E-03 4.26754955796000E-03 
4.34049736180000E-03 4.41469210655000E-03 4.49015510690000E-03 4.56690804193000E-03 
4.64497296127000E-03 4.72437229146000E-03 4.80512884238000E-03 4.88726581384000E-03 
4.97080680219000E-03 5.05577580715000E-03 5.14219723867000E-03 5.23009592394000E-03 
5.31949711457000E-03 5.41042649378000E-03 5.50291018383000E-03 5.59697475348000E-03 
5.69264722568000E-03 5.78995508527000E-03 5.88892628691000E-03 5.98958926312000E-03 
6.09197293242000E-03 6.19610670766000E-03 6.30202050446000E-03 6.40974474979000E-03 
6.51931039076000E-03 6.63074890346000E-03 6.74409230200000E-03 6.85937314775000E-03 
6.97662455868000E-03 7.09588021884000E-03 7.21717438807000E-03 7.34054191185000E-03 
7.46601823128000E-03 7.59363939326000E-03 7.72344206090000E-03 7.85546352399000E-03 
7.98974170975000E-03 8.12631519368000E-03 8.26522321072000E-03 8.40650566645000E-03 
8.55020314859000E-03 8.69635693863000E-03 8.84500902374000E-03 8.99620210879000E-03 