<UPF version="2.0.1">
  <PP_INFO>
Generated using Vanderbilt code, version   7  3  6
Author: kfg        Generation date:    3    2 2014
Automatically converted from original USPP format to UPF.v1.

Futher converted to UPF.v2 format.
Convert Q_IJ to Q_IJL use the same routine as 'upflib/upf_to_internal.f90' of QE.
The conversion is done by using PseudoPotentialIO.jl package.
Converted by: JYU on 2024-04-30

1        The Pseudo was generated with a Scalar-Relativistic Calculation
2.30000000000E+00    Local Potential cutoff radius
nl pn  l   occ               Rcut            Rcut US             E pseu
5D  5  2 10.00      0.00000000000      2.30000000000     -1.13820513100
6S  6  0  2.00      0.00000000000      2.30000000000     -0.70162638500
6P  6  1  1.00      0.00000000000      2.30000000000     -0.17422454600
</PP_INFO>
  <PP_HEADER element="Tl" pseudo_type="US" relativistic="scalar" is_ultrasoft="T" is_paw="F" is_coulomb="F" has_so="F" has_wfc="F" has_gipaw="F" core_correction="T" functional="PBE" z_valence="13.0" total_psenergy="-144.805712238" wfc_cutoff="0.0" rho_cutoff="0.0" l_max="2" mesh_size="899" number_of_wfc="3" number_of_proj="6"/>
  <PP_MESH>
    <PP_R>
0.00000000000000E+00 7.06426066205000E-10 1.43073539342000E-09 2.17338069855000E-09 
2.93482615908000E-09 3.71554770322000E-09 4.51603330735000E-09 5.33678330102000E-09 
6.17831067971000E-09 7.04114142541000E-09 7.92581483542000E-09 8.83288385944000E-09 
9.76291544513000E-09 1.07164908925000E-08 1.16942062172000E-08 1.26966725233000E-08 
1.37245163847000E-08 1.47783802373000E-08 1.58589227804000E-08 1.69668193881000E-08 
1.81027625321000E-08 1.92674622136000E-08 2.04616464079000E-08 2.16860615191000E-08 
2.29414728464000E-08 2.42286650627000E-08 2.55484427051000E-08 2.69016306776000E-08 
2.82890747667000E-08 2.97116421701000E-08 3.11702220389000E-08 3.26657260328000E-08 
3.41990888905000E-08 3.57712690138000E-08 3.73832490664000E-08 3.90360365883000E-08 
4.07306646255000E-08 4.24681923758000E-08 4.42497058504000E-08 4.60763185534000E-08 
4.79491721771000E-08 4.98694373160000E-08 5.18383141984000E-08 5.38570334363000E-08 
5.59268567950000E-08 5.80490779816000E-08 6.02250234532000E-08 6.24560532467000E-08 
6.47435618283000E-08 6.70889789654000E-08 6.94937706200000E-08 7.19594398651000E-08 
7.44875278244000E-08 7.70796146350000E-08 7.97373204357000E-08 8.24623063790000E-08 
8.52562756700000E-08 8.81209746302000E-08 9.10581937899000E-08 9.40697690066000E-08 
9.71575826130000E-08 1.00323564593000E-07 1.03569693788000E-07 1.06897999135000E-07 
1.10310560933000E-07 1.13809512145000E-07 1.17397039728000E-07 1.21075386004000E-07 
1.24846850059000E-07 1.28713789182000E-07 1.32678620334000E-07 1.36743821665000E-07 
1.40911934058000E-07 1.45185562718000E-07 1.49567378803000E-07 1.54060121090000E-07 
1.58666597690000E-07 1.63389687800000E-07 1.68232343505000E-07 1.73197591623000E-07 
1.78288535596000E-07 1.83508357429000E-07 1.88860319681000E-07 1.94347767502000E-07 
1.99974130726000E-07 2.05742926013000E-07 2.11657759048000E-07 2.17722326795000E-07 
2.23940419805000E-07 2.30315924589000E-07 2.36852826045000E-07 2.43555209949000E-07 
2.50427265509000E-07 2.57473287984000E-07 2.64697681368000E-07 2.72104961140000E-07 
2.79699757093000E-07 2.87486816221000E-07 2.95471005689000E-07 3.03657315875000E-07 
3.12050863491000E-07 3.20656894776000E-07 3.29480788781000E-07 3.38528060725000E-07 
3.47804365450000E-07 3.57315500946000E-07 3.67067411984000E-07 3.77066193825000E-07 
3.87318096034000E-07 3.97829526382000E-07 4.08607054857000E-07 4.19657417764000E-07 
4.30987521940000E-07 4.42604449069000E-07 4.54515460108000E-07 4.66727999827000E-07 
4.79249701461000E-07 4.92088391481000E-07 5.05252094486000E-07 5.18749038219000E-07 
5.32587658710000E-07 5.46776605546000E-07 5.61324747282000E-07 5.76241176979000E-07 
5.91535217891000E-07 6.07216429293000E-07 6.23294612451000E-07 6.39779816754000E-07 
6.56682345990000E-07 6.74012764791000E-07 6.91781905233000E-07 7.10000873607000E-07 
7.28681057361000E-07 7.47834132218000E-07 7.67472069474000E-07 7.87607143478000E-07 
8.08251939307000E-07 8.29419360631000E-07 8.51122637777000E-07 8.73375335999000E-07 
8.96191363960000E-07 9.19584982417000E-07 9.43570813146000E-07 9.68163848070000E-07 
9.93379458638000E-07 1.01923340543000E-06 1.04574184799000E-06 1.07292135498000E-06 
1.10078891446000E-06 1.12936194457000E-06 1.15865830438000E-06 1.18869630506000E-06 
1.21949472136000E-06 1.25107280328000E-06 1.28345028814000E-06 1.31664741294000E-06 
1.35068492695000E-06 1.38558410473000E-06 1.42136675941000E-06 1.45805525630000E-06 
1.49567252691000E-06 1.53424208326000E-06 1.57378803258000E-06 1.61433509237000E-06 
1.65590860586000E-06 1.69853455787000E-06 1.74223959098000E-06 1.78705102227000E-06 
1.83299686035000E-06 1.88010582286000E-06 1.92840735443000E-06 1.97793164509000E-06 
2.02870964914000E-06 2.08077310449000E-06 2.13415455248000E-06 2.18888735826000E-06 
2.24500573161000E-06 2.30254474835000E-06 2.36154037224000E-06 2.42202947745000E-06 
2.48404987165000E-06 2.54764031961000E-06 2.61284056742000E-06 2.67969136736000E-06 
2.74823450336000E-06 2.81851281710000E-06 2.89057023484000E-06 2.96445179478000E-06 
3.04020367532000E-06 3.11787322385000E-06 3.19750898635000E-06 3.27916073779000E-06 
3.36287951315000E-06 3.44871763940000E-06 3.53672876816000E-06 3.62696790926000E-06 
3.71949146509000E-06 3.81435726588000E-06 3.91162460585000E-06 4.01135428026000E-06 
4.11360862340000E-06 4.21845154756000E-06 4.32594858298000E-06 4.43616691881000E-06 
4.54917544509000E-06 4.66504479583000E-06 4.78384739316000E-06 4.90565749255000E-06 
5.03055122929000E-06 5.15860666603000E-06 5.28990384159000E-06 5.42452482097000E-06 
5.56255374666000E-06 5.70407689125000E-06 5.84918271130000E-06 5.99796190267000E-06 
6.15050745721000E-06 6.30691472084000E-06 6.46728145320000E-06 6.63170788872000E-06 
6.80029679927000E-06 6.97315355841000E-06 7.15038620724000E-06 7.33210552194000E-06 
7.51842508299000E-06 7.70946134619000E-06 7.90533371541000E-06 8.10616461727000E-06 
8.31207957762000E-06 8.52320730000000E-06 8.73967974612000E-06 8.96163221830000E-06 
9.18920344407000E-06 9.42253566285000E-06 9.66177471486000E-06 9.90707013232000E-06 
1.01585752328000E-05 1.04164472153000E-05 1.06808472580000E-05 1.09519406197000E-05 
1.12298967426000E-05 1.15148893581000E-05 1.18070965961000E-05 1.21067010956000E-05 
1.24138901190000E-05 1.27288556696000E-05 1.30517946111000E-05 1.33829087908000E-05 
1.37224051659000E-05 1.40704959326000E-05 1.44273986591000E-05 1.47933364210000E-05 
1.51685379416000E-05 1.55532377338000E-05 1.59476762476000E-05 1.63521000200000E-05 
1.67667618289000E-05 1.71919208515000E-05 1.76278428259000E-05 1.80748002177000E-05 
1.85330723898000E-05 1.90029457771000E-05 1.94847140658000E-05 1.99786783768000E-05 
2.04851474539000E-05 2.10044378567000E-05 2.15368741587000E-05 2.20827891498000E-05 
2.26425240447000E-05 2.32164286960000E-05 2.38048618126000E-05 2.44081911845000E-05 
2.50267939122000E-05 2.56610566425000E-05 2.63113758103000E-05 2.69781578861000E-05 
2.76618196306000E-05 2.83627883545000E-05 2.90815021862000E-05 2.98184103452000E-05 
3.05739734230000E-05 3.13486636711000E-05 3.21429652963000E-05 3.29573747629000E-05 
3.37924011032000E-05 3.46485662360000E-05 3.55264052924000E-05 3.64264669502000E-05 
3.73493137774000E-05 3.82955225832000E-05 3.92656847790000E-05 4.02604067478000E-05 
4.12803102230000E-05 4.23260326777000E-05 4.33982277223000E-05 4.44975655137000E-05 
4.56247331738000E-05 4.67804352190000E-05 4.79653940009000E-05 4.91803501571000E-05 
5.04260630748000E-05 5.17033113652000E-05 5.30128933499000E-05 5.43556275605000E-05 
5.57323532495000E-05 5.71439309151000E-05 5.85912428396000E-05 6.00751936398000E-05 
6.15967108334000E-05 6.31567454181000E-05 6.47562724664000E-05 6.63962917346000E-05 
6.80778282883000E-05 6.98019331425000E-05 7.15696839190000E-05 7.33821855193000E-05 
7.52405708162000E-05 7.71460013608000E-05 7.90996681093000E-05 8.11027921669000E-05 
8.31566255516000E-05 8.52624519759000E-05 8.74215876499000E-05 8.96353821038000E-05 
9.19052190311000E-05 9.42325171537000E-05 9.66187311089000E-05 9.90653523579000E-05 
1.01573910119000E-04 1.04145972322000E-04 1.06783146589000E-04 1.09487081241000E-04 
1.12259466325000E-04 1.15102034671000E-04 1.18016562977000E-04 1.21004872919000E-04 
1.24068832287000E-04 1.27210356155000E-04 1.30431408080000E-04 1.33734001321000E-04 
1.37120200109000E-04 1.40592120927000E-04 1.44151933839000E-04 1.47801863844000E-04 
1.51544192267000E-04 1.55381258186000E-04 1.59315459890000E-04 1.63349256384000E-04 
1.67485168923000E-04 1.71725782587000E-04 1.76073747896000E-04 1.80531782471000E-04 
1.85102672729000E-04 1.89789275625000E-04 1.94594520438000E-04 1.99521410602000E-04 
2.04573025585000E-04 2.09752522809000E-04 2.15063139631000E-04 2.20508195357000E-04 
2.26091093325000E-04 2.31815323028000E-04 2.37684462296000E-04 2.43702179532000E-04 
2.49872236005000E-04 2.56198488201000E-04 2.62684890234000E-04 2.69335496316000E-04 
2.76154463293000E-04 2.83146053241000E-04 2.90314636131000E-04 2.97664692561000E-04 
3.05200816555000E-04 3.12927718436000E-04 3.20850227770000E-04 3.28973296382000E-04 
3.37302001455000E-04 3.45841548701000E-04 3.54597275615000E-04 3.63574654811000E-04 
3.72779297443000E-04 3.82216956713000E-04 3.91893531465000E-04 4.01815069873000E-04 
4.11987773221000E-04 4.22417999781000E-04 4.33112268783000E-04 4.44077264494000E-04 
4.55319840393000E-04 4.66847023456000E-04 4.78666018547000E-04 4.90784212924000E-04 
5.03209180851000E-04 5.15948688340000E-04 5.29010697995000E-04 5.42403374000000E-04 
5.56135087212000E-04 5.70214420398000E-04 5.84650173602000E-04 5.99451369637000E-04 
6.14627259734000E-04 6.30187329318000E-04 6.46141303939000E-04 6.62499155350000E-04 
6.79271107741000E-04 6.96467644128000E-04 7.14099512907000E-04 7.32177734568000E-04 
7.50713608590000E-04 7.69718720497000E-04 7.89204949102000E-04 8.09184473934000E-04 
8.29669782844000E-04 8.50673679818000E-04 8.72209292976000E-04 8.94290082776000E-04 
9.16929850431000E-04 9.40142746533000E-04 9.63943279898000E-04 9.88346326634000E-04 
1.01336713944000E-03 1.03902135713000E-03 1.06532501444000E-03 1.09229455201000E-03 
1.11994682667000E-03 1.14829912199000E-03 1.17736915909000E-03 1.20717510768000E-03 
1.23773559745000E-03 1.26906972970000E-03 1.30119708929000E-03 1.33413775686000E-03 
1.36791232139000E-03 1.40254189310000E-03 1.43804811659000E-03 1.47445318441000E-03 
1.51177985091000E-03 1.55005144647000E-03 1.58929189208000E-03 1.62952571430000E-03 
1.67077806058000E-03 1.71307471498000E-03 1.75644211429000E-03 1.80090736453000E-03 
1.84649825794000E-03 1.89324329032000E-03 1.94117167882000E-03 1.99031338025000E-03 
2.04069910978000E-03 2.09236036012000E-03 2.14532942125000E-03 2.19963940054000E-03 
2.25532424350000E-03 2.31241875497000E-03 2.37095862088000E-03 2.43098043055000E-03 
2.49252169957000E-03 2.55562089323000E-03 2.62031745058000E-03 2.68665180908000E-03 
2.75466542986000E-03 2.82440082365000E-03 2.89590157734000E-03 2.96921238122000E-03 
3.04437905694000E-03 3.12144858612000E-03 3.20046913971000E-03 3.28149010814000E-03 
3.36456213216000E-03 3.44973713447000E-03 3.53706835223000E-03 3.62661037030000E-03 
3.71841915534000E-03 3.81255209085000E-03 3.90906801296000E-03 4.00802724727000E-03 
4.10949164653000E-03 4.21352462928000E-03 4.32019121953000E-03 4.42955808736000E-03 
4.54169359064000E-03 4.65666781770000E-03 4.77455263117000E-03 4.89542171291000E-03 
5.01935061001000E-03 5.14641678209000E-03 5.27669964962000E-03 5.41028064365000E-03 
5.54724325664000E-03 5.68767309469000E-03 5.83165793101000E-03 5.97928776081000E-03 
6.13065485756000E-03 6.28585383059000E-03 6.44498168434000E-03 6.60813787888000E-03 
6.77542439216000E-03 6.94694578367000E-03 7.12280925989000E-03 7.30312474120000E-03 
7.48800493066000E-03 7.67756538439000E-03 7.87192458386000E-03 8.07120400988000E-03 
8.27552821860000E-03 8.48502491928000E-03 8.69982505419000E-03 8.92006288040000E-03 
9.14587605373000E-03 9.37740571476000E-03 9.61479657706000E-03 9.85819701765000E-03 
1.01077591697000E-02 1.03636390178000E-02 1.06259964950000E-02 1.08949955834000E-02 
1.11708044161000E-02 1.14535953827000E-02 1.17435452367000E-02 1.20408352062000E-02 
1.23456511070000E-02 1.26581834592000E-02 1.29786276055000E-02 1.33071838340000E-02 
1.36440575030000E-02 1.39894591696000E-02 1.43436047210000E-02 1.47067155097000E-02 
1.50790184917000E-02 1.54607463687000E-02 1.58521377328000E-02 1.62534372165000E-02 
1.66648956450000E-02 1.70867701932000E-02 1.75193245465000E-02 1.79628290653000E-02 
1.84175609545000E-02 1.88838044362000E-02 1.93618509279000E-02 1.98519992242000E-02 
2.03545556836000E-02 2.08698344204000E-02 2.13981575005000E-02 2.19398551430000E-02 
2.24952659267000E-02 2.30647370013000E-02 2.36486243047000E-02 2.42472927857000E-02 
2.48611166314000E-02 2.54904795017000E-02 2.61357747689000E-02 2.67974057636000E-02 
2.74757860267000E-02 2.81713395679000E-02 2.88845011308000E-02 2.96157164647000E-02 
3.03654426028000E-02 3.11341481485000E-02 3.19223135677000E-02 3.27304314895000E-02 
3.35590070139000E-02 3.44085580276000E-02 3.52796155276000E-02 3.61727239531000E-02 
3.70884415261000E-02 3.80273405999000E-02 3.89900080168000E-02 3.99770454754000E-02 
4.09890699063000E-02 4.20267138575000E-02 4.30906258905000E-02 4.41814709848000E-02 
4.52999309542000E-02 4.64467048725000E-02 4.76225095107000E-02 4.88280797851000E-02 
5.00641692162000E-02 5.13315504003000E-02 5.26310154918000E-02 5.39633766988000E-02 
5.53294667902000E-02 5.67301396170000E-02 5.81662706452000E-02 5.96387575035000E-02 
6.11485205440000E-02 6.26965034179000E-02 6.42836736648000E-02 6.59110233178000E-02 
6.75795695234000E-02 6.92903551773000E-02 7.10444495763000E-02 7.28429490863000E-02 
7.46869778282000E-02 7.65776883799000E-02 7.85162624972000E-02 8.05039118519000E-02 
8.25418787895000E-02 8.46314371058000E-02 8.67738928427000E-02 8.89705851048000E-02 
9.12228868963000E-02 9.35322059791000E-02 9.58999857528000E-02 9.83277061569000E-02 
1.00816884596000E-01 1.03369076886000E-01 1.05985878233000E-01 1.08668924220000E-01 
1.11419891841000E-01 1.14240500538000E-01 1.17132513284000E-01 1.20097737682000E-01 
1.23138027092000E-01 1.26255281796000E-01 1.29451450178000E-01 1.32728529947000E-01 
1.36088569387000E-01 1.39533668629000E-01 1.43065980974000E-01 1.46687714232000E-01 
1.50401132103000E-01 1.54208555596000E-01 1.58112364473000E-01 1.62114998743000E-01 
1.66218960181000E-01 1.70426813898000E-01 1.74741189939000E-01 1.79164784929000E-01 
1.83700363760000E-01 1.88350761315000E-01 1.93118884245000E-01 1.98007712782000E-01 
2.03020302602000E-01 2.08159786738000E-01 2.13429377534000E-01 2.18832368656000E-01 
2.24372137150000E-01 2.30052145550000E-01 2.35875944048000E-01 2.41847172707000E-01 
2.47969563739000E-01 2.54246943838000E-01 2.60683236571000E-01 2.67282464829000E-01 
2.74048753347000E-01 2.80986331274000E-01 2.88099534822000E-01 2.95392809976000E-01 
3.02870715269000E-01 3.10537924636000E-01 3.18399230332000E-01 3.26459545929000E-01 
3.34723909387000E-01 3.43197486202000E-01 3.51885572635000E-01 3.60793599024000E-01 
3.69927133174000E-01 3.79291883842000E-01 3.88893704301000E-01 3.98738596003000E-01 
4.08832712325000E-01 4.19182362419000E-01 4.29794015152000E-01 4.40674303152000E-01 
4.51830026955000E-01 4.63268159250000E-01 4.74995849243000E-01 4.87020427122000E-01 
4.99349408639000E-01 5.11990499809000E-01 5.24951601725000E-01 5.38240815499000E-01 
5.51866447321000E-01 5.65837013654000E-01 5.80161246559000E-01 5.94848099145000E-01 
6.09906751175000E-01 6.25346614796000E-01 6.41177340426000E-01 6.57408822783000E-01 
6.74051207072000E-01 6.91114895325000E-01 7.08610552903000E-01 7.26549115161000E-01 
7.44941794284000E-01 7.63800086297000E-01 7.83135778244000E-01 8.02960955564000E-01 
8.23288009637000E-01 8.44129645534000E-01 8.65498889955000E-01 8.87409099374000E-01 
9.09873968386000E-01 9.32907538264000E-01 9.56524205740000E-01 9.80738731999000E-01 
1.00556625191000E+00 1.03102228348000E+00 1.05712273755000E+00 1.08388392777000E+00 
1.11132258074000E+00 1.13945584652000E+00 1.16830130932000E+00 1.19787699848000E+00 
1.22820139977000E+00 1.25929346694000E+00 1.29117263354000E+00 1.32385882508000E+00 
1.35737247150000E+00 1.39173451992000E+00 1.42696644774000E+00 1.46309027605000E+00 
1.50012858344000E+00 1.53810452004000E+00 1.57704182205000E+00 1.61696482655000E+00 
1.65789848672000E+00 1.69986838744000E+00 1.74290076125000E+00 1.78702250479000E+00 
1.83226119558000E+00 1.87864510929000E+00 1.92620323736000E+00 1.97496530517000E+00 
2.02496179061000E+00 2.07622394311000E+00 2.12878380317000E+00 2.18267422242000E+00 
2.23792888413000E+00 2.29458232427000E+00 2.35266995307000E+00 2.41222807719000E+00 
2.47329392240000E+00 2.53590565685000E+00 2.60010241489000E+00 2.66592432161000E+00 
2.73341251783000E+00 2.80260918586000E+00 2.87355757589000E+00 2.94630203297000E+00 
3.02088802474000E+00 3.09736216988000E+00 3.17577226723000E+00 3.25616732564000E+00 
3.33859759464000E+00 3.42311459584000E+00 3.50977115511000E+00 3.59862143562000E+00 
3.68972097169000E+00 3.78312670349000E+00 3.87889701266000E+00 3.97709175874000E+00 
4.07777231666000E+00 4.18100161503000E+00 4.28684417554000E+00 4.39536615322000E+00 
4.50663537784000E+00 4.62072139630000E+00 4.73769551606000E+00 4.85763084976000E+00 
4.98060236089000E+00 5.10668691065000E+00 5.23596330598000E+00 5.36851234884000E+00 
5.50441688669000E+00 5.64376186430000E+00 5.78663437682000E+00 5.93312372420000E+00 
6.08332146707000E+00 6.23732148391000E+00 6.39522002973000E+00 6.55711579627000E+00 
6.72310997365000E+00 6.89330631364000E+00 7.06781119449000E+00 7.24673368742000E+00 
7.43018562484000E+00 7.61828167015000E+00 7.81113938953000E+00 8.00887932532000E+00 
8.21162507141000E+00 8.41950335050000E+00 8.63264409328000E+00 8.85118051965000E+00 
9.07524922200000E+00 9.30499025055000E+00 9.54054720092000E+00 9.78206730389000E+00 
1.00297015174000E+01 1.02836046208000E+01 1.05439353119000E+01 1.08108563059000E+01 
1.10845344369000E+01 1.13651407628000E+01 1.16528506717000E+01 1.19478439917000E+01 
1.22503051030000E+01 1.25604230539000E+01 1.28783916780000E+01 1.32044097162000E+01 
1.35386809403000E+01 1.38814142808000E+01 1.42328239571000E+01 1.45931296117000E+01 
1.49625564473000E+01 1.53413353678000E+01 1.57297031224000E+01 1.61279024534000E+01 
1.65361822486000E+01 1.69547976959000E+01 1.73840104438000E+01 1.78240887640000E+01 
1.82753077201000E+01 1.87379493383000E+01 1.92123027849000E+01 1.96986645462000E+01 
2.01973386140000E+01 2.07086366760000E+01 2.12328783101000E+01 2.17703911843000E+01 
2.23215112617000E+01 2.28865830103000E+01 2.34659596183000E+01 2.40600032149000E+01 
2.46690850968000E+01 2.52935859600000E+01 2.59338961378000E+01 2.65904158449000E+01 
2.72635554275000E+01 2.79537356198000E+01 2.86613878068000E+01 2.93869542942000E+01 
3.01308885847000E+01 3.08936556615000E+01 3.16757322787000E+01 3.24776072597000E+01 
3.32997818026000E+01 3.41427697930000E+01 3.50070981261000E+01 3.58933070351000E+01 
3.68019504294000E+01 3.77335962408000E+01 3.86888267781000E+01 3.96682390917000E+01 
4.06724453460000E+01 4.17020732026000E+01 4.27577662126000E+01 4.38401842183000E+01 
4.49500037663000E+01 4.60879185299000E+01 4.72546397430000E+01 4.84508966441000E+01 
4.96774369329000E+01 5.09350272369000E+01 5.22244535910000E+01 5.35465219287000E+01 
5.49020585857000E+01 5.62919108165000E+01 5.77169473241000E+01 5.91780588026000E+01 
6.06761584943000E+01 6.22121827603000E+01 6.37870916656000E+01 6.54018695798000E+01 
6.70575257914000E+01 6.87550951396000E+01 7.04956386604000E+01 7.22802442503000E+01 
7.41100273457000E+01 7.59861316207000E+01 7.79097297016000E+01 7.98820238997000E+01 
8.19042469632000E+01 8.39776628472000E+01 8.61035675043000E+01 8.82832896939000E+01 
9.05181918135000E+01 9.28096707496000E+01 9.51591587512000E+01 9.75681243247000E+01 
1.00038073152000E+02 1.02570549032000E+02 1.05167134843000E+02 1.07829453538000E+02 
1.10559169151000E+02 1.13357987844000E+02 1.16227658969000E+02 1.19169976165000E+02 
1.22186778475000E+02 1.25279951499000E+02 1.28451428572000E+02 1.31703191968000E+02 
1.35037274147000E+02 1.38455759018000E+02 1.41960783246000E+02 1.45554537584000E+02 
1.49239268246000E+02 1.53017278310000E+02 1.56890929153000E+02 
</PP_R>
    <PP_RAB>
6.97632533019000E-10 7.15293184674000E-10 7.33400917854000E-10 7.51967050483000E-10 
7.71003186996000E-10 7.90521225599000E-10 8.10533365703000E-10 8.31052115544000E-10 
8.52090300011000E-10 8.73661068654000E-10 8.95777903904000E-10 9.18454629505000E-10 
9.41705419147000E-10 9.65544805331000E-10 9.89987688450000E-10 1.01504934610000E-09 
1.04074544264000E-09 1.06709203895000E-09 1.09410560253000E-09 1.12180301772000E-09 
1.15020159632000E-09 1.17931908836000E-09 1.20917369322000E-09 1.23978407100000E-09 
1.27116935418000E-09 1.30334915959000E-09 1.33634360065000E-09 1.37017329996000E-09 
1.40485940219000E-09 1.44042358727000E-09 1.47688808399000E-09 1.51427568384000E-09 
1.55260975528000E-09 1.59191425836000E-09 1.63221375968000E-09 1.67353344773000E-09 
1.71589914866000E-09 1.75933734241000E-09 1.80387517928000E-09 1.84954049685000E-09 
1.89636183745000E-09 1.94436846592000E-09 1.99359038798000E-09 2.04405836893000E-09 
2.09580395289000E-09 2.14885948256000E-09 2.20325811935000E-09 2.25903386419000E-09 
2.31622157873000E-09 2.37485700715000E-09 2.43497679852000E-09 2.49661852965000E-09 
2.55982072863000E-09 2.62462289889000E-09 2.69106554391000E-09 2.75919019249000E-09 
2.82903942477000E-09 2.90065689877000E-09 2.97408737777000E-09 3.04937675818000E-09 
3.12657209834000E-09 3.20572164784000E-09 3.28687487772000E-09 3.37008251140000E-09 
3.45539655636000E-09 3.54287033664000E-09 3.63255852621000E-09 3.72451718312000E-09 
3.81880378450000E-09 3.91547726257000E-09 4.01459804138000E-09 4.11622807465000E-09 
4.22043088447000E-09 4.32727160097000E-09 4.43681700310000E-09 4.54913556027000E-09 
4.66429747526000E-09 4.78237472801000E-09 4.90344112064000E-09 5.02757232360000E-09 
5.15484592292000E-09 5.28534146874000E-09 5.41914052503000E-09 5.55632672056000E-09 
5.69698580117000E-09 5.84120568335000E-09 5.98907650923000E-09 6.14069070289000E-09 
6.29614302814000E-09 6.45553064774000E-09 6.61895318413000E-09 6.78651278173000E-09 
6.95831417074000E-09 7.13446473262000E-09 7.31507456721000E-09 7.50025656152000E-09 
7.69012646034000E-09 7.88480293853000E-09 8.08440767523000E-09 8.28906542990000E-09 
8.49890412029000E-09 8.71405490242000E-09 8.93465225253000E-09 9.16083405115000E-09 
9.39274166926000E-09 9.63052005667000E-09 9.87431783262000E-09 1.01242873786000E-08 
1.03805849339000E-08 1.06433706926000E-08 1.09128089044000E-08 1.11890679771000E-08 
1.14723205815000E-08 1.17627437597000E-08 1.20605190357000E-08 1.23658325287000E-08 
1.26788750695000E-08 1.29998423200000E-08 1.33289348952000E-08 1.36663584885000E-08 
1.40123240008000E-08 1.43670476717000E-08 1.47307512151000E-08 1.51036619575000E-08 
1.54860129803000E-08 1.58780432653000E-08 1.62799978443000E-08 1.66921279519000E-08 
1.71146911828000E-08 1.75479516528000E-08 1.79921801638000E-08 1.84476543732000E-08 
1.89146589670000E-08 1.93934858385000E-08 1.98844342699000E-08 2.03878111200000E-08 
2.09039310157000E-08 2.14331165488000E-08 2.19756984774000E-08 2.25320159330000E-08 
2.31024166320000E-08 2.36872570935000E-08 2.42869028617000E-08 2.49017287348000E-08 
2.55321189990000E-08 2.61784676687000E-08 2.68411787328000E-08 2.75206664075000E-08 
2.82173553945000E-08 2.89316811472000E-08 2.96640901424000E-08 3.04150401596000E-08 
3.11850005670000E-08 3.19744526149000E-08 3.27838897366000E-08 3.36138178565000E-08 
3.44647557068000E-08 3.53372351514000E-08 3.62318015182000E-08 3.71490139405000E-08 
3.80894457058000E-08 3.90536846145000E-08 4.00423333475000E-08 4.10560098422000E-08 
4.20953476796000E-08 4.31609964797000E-08 4.42536223075000E-08 4.53739080899000E-08 
4.65225540418000E-08 4.77002781045000E-08 4.89078163938000E-08 5.01459236603000E-08 
5.14153737616000E-08 5.27169601452000E-08 5.40514963450000E-08 5.54198164895000E-08 
5.68227758233000E-08 5.82612512418000E-08 5.97361418389000E-08 6.12483694692000E-08 
6.27988793243000E-08 6.43886405232000E-08 6.60186467184000E-08 6.76899167170000E-08 
6.94034951169000E-08 7.11604529606000E-08 7.29618884039000E-08 7.48089274025000E-08 
7.67027244160000E-08 7.86444631292000E-08 8.06353571919000E-08 8.26766509777000E-08 
8.47696203618000E-08 8.69155735180000E-08 8.91158517371000E-08 9.13718302645000E-08 
9.36849191601000E-08 9.60565641800000E-08 9.84882476794000E-08 1.00981489540000E-07 
1.03537848118000E-07 1.06158921222000E-07 1.08846347107000E-07 1.11601805503000E-07 
1.14427018660000E-07 1.17323752429000E-07 1.20293817362000E-07 1.23339069847000E-07 
1.26461413265000E-07 1.29662799184000E-07 1.32945228573000E-07 1.36310753057000E-07 
1.39761476200000E-07 1.43299554814000E-07 1.46927200316000E-07 1.50646680100000E-07 
1.54460318963000E-07 1.58370500554000E-07 1.62379668863000E-07 1.66490329751000E-07 
1.70705052515000E-07 1.75026471493000E-07 1.79457287714000E-07 1.84000270582000E-07 
1.88658259608000E-07 1.93434166188000E-07 1.98330975418000E-07 2.03351747965000E-07 
2.08499621973000E-07 2.13777815033000E-07 2.19189626186000E-07 2.24738437991000E-07 
2.30427718635000E-07 2.36261024104000E-07 2.42242000405000E-07 2.48374385841000E-07 
2.54662013354000E-07 2.61108812915000E-07 2.67718813984000E-07 2.74496148026000E-07 
2.81445051097000E-07 2.88569866487000E-07 2.95875047436000E-07 3.03365159922000E-07 
3.11044885509000E-07 3.18919024274000E-07 3.26992497811000E-07 3.35270352304000E-07 
3.43757761680000E-07 3.52460030849000E-07 3.61382599010000E-07 3.70531043059000E-07 
3.79911081072000E-07 3.89528575878000E-07 3.99389538724000E-07 4.09500133033000E-07 
4.19866678256000E-07 4.30495653820000E-07 4.41393703181000E-07 4.52567637976000E-07 
4.64024442277000E-07 4.75771276960000E-07 4.87815484178000E-07 5.00164591953000E-07 
5.12826318881000E-07 5.25808578951000E-07 5.39119486500000E-07 5.52767361278000E-07 
5.66760733651000E-07 5.81108349932000E-07 5.95819177848000E-07 6.10902412146000E-07 
6.26367480338000E-07 6.42224048596000E-07 6.58482027789000E-07 6.75151579686000E-07 
6.92243123298000E-07 7.09767341397000E-07 7.27735187188000E-07 7.46157891162000E-07 
7.65046968107000E-07 7.84414224311000E-07 8.04271764941000E-07 8.24632001605000E-07 
8.45507660114000E-07 8.66911788434000E-07 8.88857764842000E-07 9.11359306288000E-07 
9.34430476968000E-07 9.58085697114000E-07 9.82339752009000E-07 1.00720780123000E-06 
1.03270538811000E-06 1.05884844947000E-06 1.08565332559000E-06 1.11313677038000E-06 
1.14131596188000E-06 1.17020851301000E-06 1.19983248255000E-06 1.23020638646000E-06 
1.26134920940000E-06 1.29328041666000E-06 1.32601996628000E-06 1.35958832155000E-06 
1.39400646377000E-06 1.42929590541000E-06 1.46547870352000E-06 1.50257747353000E-06 
1.54061540337000E-06 1.57961626799000E-06 1.61960444419000E-06 1.66060492590000E-06 
1.70264333974000E-06 1.74574596110000E-06 1.78993973051000E-06 1.83525227052000E-06 
1.88171190294000E-06 1.92934766655000E-06 1.97818933526000E-06 2.02826743671000E-06 
2.07961327132000E-06 2.13225893193000E-06 2.18623732378000E-06 2.24158218513000E-06 
2.29832810831000E-06 2.35651056138000E-06 2.41616591025000E-06 2.47733144148000E-06 
2.54004538550000E-06 2.60434694057000E-06 2.67027629726000E-06 2.73787466356000E-06 
2.80718429065000E-06 2.87824849930000E-06 2.95111170696000E-06 3.02581945550000E-06 
3.10241843970000E-06 3.18095653642000E-06 3.26148283452000E-06 3.34404766557000E-06 
3.42870263526000E-06 3.51550065571000E-06 3.60449597852000E-06 3.69574422864000E-06 
3.78930243922000E-06 3.88522908717000E-06 3.98358412978000E-06 4.08442904214000E-06 
4.18782685562000E-06 4.29384219720000E-06 4.40254132994000E-06 4.51399219432000E-06 
4.62826445076000E-06 4.74542952315000E-06 4.86556064347000E-06 4.98873289758000E-06 
5.11502327215000E-06 5.24451070277000E-06 5.37727612330000E-06 5.51340251645000E-06 
5.65297496566000E-06 5.79608070824000E-06 5.94280918993000E-06 6.09325212083000E-06 
6.24750353266000E-06 6.40565983756000E-06 6.56781988839000E-06 6.73408504045000E-06 
6.90455921487000E-06 7.07934896356000E-06 7.25856353581000E-06 7.44231494655000E-06 
7.63071804640000E-06 7.82389059343000E-06 8.02195332678000E-06 8.22503004209000E-06 
8.43324766892000E-06 8.64673635007000E-06 8.86562952291000E-06 9.09006400281000E-06 
9.32018006862000E-06 9.55612155036000E-06 9.79803591916000E-06 1.00460743794000E-05 
1.03003919631000E-05 1.05611476271000E-05 1.08285043521000E-05 1.11026292449000E-05 
1.13836936424000E-05 1.16718732189000E-05 1.19673480962000E-05 1.22703029556000E-05 
1.25809271538000E-05 1.28994148410000E-05 1.32259650824000E-05 1.35607819825000E-05 
1.39040748128000E-05 1.42560581425000E-05 1.46169519726000E-05 1.49869818735000E-05 
1.53663791259000E-05 1.57553808655000E-05 1.61542302310000E-05 1.65631765163000E-05 
1.69824753261000E-05 1.74123887357000E-05 1.78531854552000E-05 1.83051409967000E-05 
1.87685378473000E-05 1.92436656450000E-05 1.97308213601000E-05 2.02303094809000E-05 
2.07424422036000E-05 2.12675396280000E-05 2.18059299569000E-05 2.23579497019000E-05 
2.29239438933000E-05 2.35042662959000E-05 2.40992796300000E-05 2.47093557984000E-05 
2.53348761185000E-05 2.59762315609000E-05 2.66338229936000E-05 2.73080614327000E-05 
2.79993682992000E-05 2.87081756823000E-05 2.94349266097000E-05 3.01800753245000E-05 
3.09440875688000E-05 3.17274408751000E-05 3.25306248648000E-05 3.33541415540000E-05 
3.41985056674000E-05 3.50642449601000E-05 3.59519005474000E-05 3.68620272428000E-05 
3.77951939052000E-05 3.87519837942000E-05 3.97329949345000E-05 4.07388404901000E-05 
4.17701491471000E-05 4.28275655071000E-05 4.39117504897000E-05 4.50233817457000E-05 
4.61631540811000E-05 4.73317798904000E-05 4.85299896030000E-05 4.97585321388000E-05 
5.10181753770000E-05 5.23097066356000E-05 5.36339331637000E-05 5.49916826460000E-05 