<UPF version="2.0.1">
  <PP_INFO>
Generated using Vanderbilt code, version   7  3  6
Author: kfg        Generation date:    3    2 2014
Automatically converted from original USPP format to UPF.v1.

Futher converted to UPF.v2 format.
Convert Q_IJ to Q_IJL use the same routine as 'upflib/upf_to_internal.f90' of QE.
The conversion is done by using PseudoPotentialIO.jl package.
Converted by: JYU on 2024-04-30

1        The Pseudo was generated with a Scalar-Relativistic Calculation
2.00000000000E+00    Local Potential cutoff radius
nl pn  l   occ               Rcut            Rcut US             E pseu
5S  5  0  2.00      0.00000000000      1.45000000000     -5.87786794000
5P  5  1  6.00      0.00000000000      1.50000000000     -3.24146052300
5D  5  2  3.90      0.00000000000      1.70000000000     -0.38902219300
6S  6  0  2.00      0.00000000000      1.45000000000     -0.46971592100
6P  6  1  0.00      0.00000000000      1.50000000000     -0.13888875900
</PP_INFO>
  <PP_HEADER element="W" pseudo_type="US" relativistic="scalar" is_ultrasoft="T" is_paw="F" is_coulomb="F" has_so="F" has_wfc="F" has_gipaw="F" core_correction="T" functional="PBE" z_valence="14.0" total_psenergy="-158.267260384" wfc_cutoff="0.0" rho_cutoff="0.0" l_max="3" mesh_size="923" number_of_wfc="5" number_of_proj="8"/>
  <PP_MESH>
    <PP_R>
0.00000000000000E+00 5.72578501080000E-07 1.15494443254000E-06 1.74726509684000E-06 
2.34971065624000E-06 2.96245418170000E-06 3.58567170258000E-06 4.21954225720000E-06 
4.86424794432000E-06 5.51997397540000E-06 6.18690872784000E-06 6.86524379909000E-06 
7.55517406168000E-06 8.25689771925000E-06 8.97061636340000E-06 9.69653503170000E-06 
1.04348622665000E-05 1.11858101750000E-05 1.19495944900000E-05 1.27264346318000E-05 
1.35165537718000E-05 1.43201788957000E-05 1.51375408696000E-05 1.59688745056000E-05 
1.68144186300000E-05 1.76744161512000E-05 1.85491141297000E-05 1.94387638494000E-05 
2.03436208895000E-05 2.12639451979000E-05 2.22000011658000E-05 2.31520577042000E-05 
2.41203883204000E-05 2.51052711971000E-05 2.61069892721000E-05 2.71258303195000E-05 
2.81620870327000E-05 2.92160571082000E-05 3.02880433312000E-05 3.13783536626000E-05 
3.24873013275000E-05 3.36152049051000E-05 3.47623884202000E-05 3.59291814364000E-05 
3.71159191509000E-05 3.83229424904000E-05 3.95505982094000E-05 4.07992389895000E-05 
4.20692235411000E-05 4.33609167062000E-05 4.46746895633000E-05 4.60109195339000E-05 
4.73699904909000E-05 4.87522928693000E-05 5.01582237776000E-05 5.15881871126000E-05 
5.30425936752000E-05 5.45218612882000E-05 5.60264149166000E-05 5.75566867894000E-05 
5.91131165243000E-05 6.06961512533000E-05 6.23062457517000E-05 6.39438625684000E-05 
6.56094721592000E-05 6.73035530214000E-05 6.90265918316000E-05 7.07790835856000E-05 
7.25615317403000E-05 7.43744483587000E-05 7.62183542564000E-05 7.80937791522000E-05 
8.00012618191000E-05 8.19413502401000E-05 8.39146017651000E-05 8.59215832710000E-05 
8.79628713248000E-05 9.00390523490000E-05 9.21507227903000E-05 9.42984892906000E-05 
9.64829688619000E-05 9.87047890627000E-05 1.00964588179000E-04 1.03263015408000E-04 
1.05600731042000E-04 1.07978406662000E-04 1.10396725329000E-04 1.12856381778000E-04 
1.15358082622000E-04 1.17902546550000E-04 1.20490504538000E-04 1.23122700056000E-04 
1.25799889283000E-04 1.28522841323000E-04 1.31292338429000E-04 1.34109176222000E-04 
1.36974163926000E-04 1.39888124596000E-04 1.42851895358000E-04 1.45866327644000E-04 
1.48932287443000E-04 1.52050655546000E-04 1.55222327800000E-04 1.58448215364000E-04 
1.61729244974000E-04 1.65066359207000E-04 1.68460516749000E-04 1.71912692679000E-04 
1.75423878737000E-04 1.78995083621000E-04 1.82627333269000E-04 1.86321671155000E-04 
1.90079158592000E-04 1.93900875032000E-04 1.97787918381000E-04 2.01741405311000E-04 
2.05762471583000E-04 2.09852272371000E-04 2.14011982596000E-04 2.18242797261000E-04 
2.22545931799000E-04 2.26922622416000E-04 2.31374126451000E-04 2.35901722735000E-04 
2.40506711958000E-04 2.45190417046000E-04 2.49954183535000E-04 2.54799379964000E-04 
2.59727398264000E-04 2.64739654160000E-04 2.69837587574000E-04 2.75022663046000E-04 
2.80296370147000E-04 2.85660223910000E-04 2.91115765268000E-04 2.96664561491000E-04 
3.02308206641000E-04 3.08048322030000E-04 3.13886556679000E-04 3.19824587803000E-04 
3.25864121281000E-04 3.32006892155000E-04 3.38254665124000E-04 3.44609235052000E-04 
3.51072427485000E-04 3.57646099173000E-04 3.64332138603000E-04 3.71132466547000E-04 
3.78049036606000E-04 3.85083835778000E-04 3.92238885023000E-04 3.99516239850000E-04 
4.06917990901000E-04 4.14446264556000E-04 4.22103223543000E-04 4.29891067558000E-04 
4.37812033897000E-04 4.45868398101000E-04 4.54062474608000E-04 4.62396617416000E-04 
4.70873220765000E-04 4.79494719818000E-04 4.88263591365000E-04 4.97182354533000E-04 
5.06253571511000E-04 5.15479848282000E-04 5.24863835379000E-04 5.34408228639000E-04 
5.44115769981000E-04 5.53989248195000E-04 5.64031499739000E-04 5.74245409558000E-04 
5.84633911911000E-04 5.95199991213000E-04 6.05946682895000E-04 6.16877074272000E-04 
6.27994305436000E-04 6.39301570151000E-04 6.50802116776000E-04 6.62499249195000E-04 
6.74396327768000E-04 6.86496770296000E-04 6.98804053001000E-04 7.11321711528000E-04 
7.24053341957000E-04 7.37002601840000E-04 7.50173211249000E-04 7.63568953845000E-04 
7.77193677965000E-04 7.91051297728000E-04 8.05145794162000E-04 8.19481216342000E-04 
8.34061682557000E-04 8.48891381494000E-04 8.63974573437000E-04 8.79315591497000E-04 
8.94918842850000E-04 9.10788810008000E-04 9.26930052107000E-04 9.43347206213000E-04 
9.60044988656000E-04 9.77028196387000E-04 9.94301708351000E-04 1.01187048690000E-03 
1.02973957919000E-03 1.04791411868000E-03 1.06639932656000E-03 1.08520051326000E-03 
1.10432308002000E-03 1.12377252036000E-03 1.14355442175000E-03 1.16367446713000E-03 
1.18413843661000E-03 1.20495220908000E-03 1.22612176395000E-03 1.24765318281000E-03 
1.26955265123000E-03 1.29182646050000E-03 1.31448100945000E-03 1.33752280630000E-03 
1.36095847051000E-03 1.38479473470000E-03 1.40903844655000E-03 1.43369657082000E-03 
1.45877619131000E-03 1.48428451292000E-03 1.51022886368000E-03 1.53661669691000E-03 
1.56345559332000E-03 1.59075326321000E-03 1.61851754867000E-03 1.64675642584000E-03 
1.67547800720000E-03 1.70469054392000E-03 1.73440242818000E-03 1.76462219563000E-03 
1.79535852784000E-03 1.82662025474000E-03 1.85841635724000E-03 1.89075596974000E-03 
1.92364838278000E-03 1.95710304572000E-03 1.99112956942000E-03 2.02573772907000E-03 
2.06093746690000E-03 2.09673889512000E-03 2.13315229880000E-03 2.17018813879000E-03 
2.20785705478000E-03 2.24616986832000E-03 2.28513758594000E-03 2.32477140230000E-03 
2.36508270344000E-03 2.40608307002000E-03 2.44778428064000E-03 2.49019831525000E-03 
2.53333735860000E-03 2.57721380369000E-03 2.62184025537000E-03 2.66722953396000E-03 
2.71339467892000E-03 2.76034895261000E-03 2.80810584407000E-03 2.85667907295000E-03 
2.90608259338000E-03 2.95633059805000E-03 3.00743752223000E-03 3.05941804795000E-03 
3.11228710821000E-03 3.16605989128000E-03 3.22075184503000E-03 3.27637868139000E-03 
3.33295638089000E-03 3.39050119721000E-03 3.44902966185000E-03 3.50855858890000E-03 
3.56910507989000E-03 3.63068652864000E-03 3.69332062631000E-03 3.75702536647000E-03 
3.82181905026000E-03 3.88772029164000E-03 3.95474802277000E-03 4.02292149942000E-03 
4.09226030651000E-03 4.16278436374000E-03 4.23451393130000E-03 4.30746961571000E-03 
4.38167237573000E-03 4.45714352837000E-03 4.53390475504000E-03 4.61197810775000E-03 
4.69138601547000E-03 4.77215129054000E-03 4.85429713527000E-03 4.93784714858000E-03 
5.02282533276000E-03 5.10925610040000E-03 5.19716428139000E-03 5.28657513005000E-03 
5.37751433238000E-03 5.47000801346000E-03 5.56408274494000E-03 5.65976555265000E-03 
5.75708392443000E-03 5.85606581796000E-03 5.95673966881000E-03 6.05913439864000E-03 
6.16327942348000E-03 6.26920466217000E-03 6.37694054498000E-03 6.48651802235000E-03 
6.59796857377000E-03 6.71132421683000E-03 6.82661751640000E-03 6.94388159403000E-03 
7.06315013740000E-03 7.18445741007000E-03 7.30783826127000E-03 7.43332813593000E-03 
7.56096308486000E-03 7.69077977512000E-03 7.82281550052000E-03 7.95710819237000E-03 
8.09369643038000E-03 8.23261945368000E-03 8.37391717219000E-03 8.51763017800000E-03 
8.66379975707000E-03 8.81246790110000E-03 8.96367731957000E-03 9.11747145202000E-03 
9.27389448053000E-03 9.43299134240000E-03 9.59480774309000E-03 9.75939016931000E-03 
9.92678590242000E-03 1.00970430320000E-02 1.02702104695000E-02 1.04463379628000E-02 
1.06254761097000E-02 1.08076763732000E-02 1.09929910960000E-02 1.11814735153000E-02 
1.13731777785000E-02 1.15681589586000E-02 1.17664730698000E-02 1.19681770840000E-02 
1.21733289468000E-02 1.23819875944000E-02 1.25942129703000E-02 1.28100660429000E-02 
1.30296088225000E-02 1.32529043795000E-02 1.34800168625000E-02 1.37110115163000E-02 
1.39459547014000E-02 1.41849139124000E-02 1.44279577976000E-02 1.46751561788000E-02 
1.49265800713000E-02 1.51823017044000E-02 1.54423945419000E-02 1.57069333035000E-02 
1.59759939860000E-02 1.62496538854000E-02 1.65279916188000E-02 1.68110871473000E-02 
1.70990217988000E-02 1.73918782914000E-02 1.76897407569000E-02 1.79926947656000E-02 
1.83008273503000E-02 1.86142270315000E-02 1.89329838428000E-02 1.92571893570000E-02 
1.95869367119000E-02 1.99223206377000E-02 2.02634374837000E-02 2.06103852460000E-02 
2.09632635962000E-02 2.13221739092000E-02 2.16872192932000E-02 2.20585046185000E-02 
2.24361365484000E-02 2.28202235690000E-02 2.32108760212000E-02 2.36082061318000E-02 
2.40123280462000E-02 2.44233578608000E-02 2.48414136563000E-02 2.52666155323000E-02 
2.56990856408000E-02 2.61389482224000E-02 2.65863296409000E-02 2.70413584203000E-02 
2.75041652818000E-02 2.79748831806000E-02 2.84536473449000E-02 2.89405953145000E-02 
2.94358669800000E-02 2.99396046234000E-02 3.04519529588000E-02 3.09730591740000E-02 
3.15030729727000E-02 3.20421466175000E-02 3.25904349740000E-02 3.31480955547000E-02 
3.37152885648000E-02 3.42921769478000E-02 3.48789264326000E-02 3.54757055810000E-02 
3.60826858360000E-02 3.67000415714000E-02 3.73279501415000E-02 3.79665919322000E-02 
3.86161504131000E-02 3.92768121897000E-02 3.99487670574000E-02 4.06322080557000E-02 
4.13273315240000E-02 4.20343371579000E-02 4.27534280665000E-02 4.34848108305000E-02 
4.42286955622000E-02 4.49852959651000E-02 4.57548293961000E-02 4.65375169270000E-02 
4.73335834090000E-02 4.81432575365000E-02 4.89667719132000E-02 4.98043631189000E-02 
5.06562717772000E-02 5.15227426252000E-02 5.24040245830000E-02 5.33003708260000E-02 
5.42120388571000E-02 5.51392905808000E-02 5.60823923786000E-02 5.70416151855000E-02 
5.80172345675000E-02 5.90095308013000E-02 6.00187889544000E-02 6.10452989670000E-02 
6.20893557357000E-02 6.31512591977000E-02 6.42313144175000E-02 6.53298316739000E-02 
6.64471265496000E-02 6.75835200220000E-02 6.87393385548000E-02 6.99149141923000E-02 
7.11105846547000E-02 7.23266934350000E-02 7.35635898977000E-02 7.48216293791000E-02 
7.61011732898000E-02 7.74025892178000E-02 7.87262510349000E-02 8.00725390034000E-02 
8.14418398859000E-02 8.28345470559000E-02 8.42510606113000E-02 8.56917874890000E-02 
8.71571415820000E-02 8.86475438582000E-02 9.01634224812000E-02 9.17052129338000E-02 
9.32733581423000E-02 9.48683086047000E-02 9.64905225193000E-02 9.81404659168000E-02 
9.98186127940000E-02 1.01525445250000E-01 1.03261453625000E-01 1.05027136640000E-01 
1.06823001542000E-01 1.08649564248000E-01 1.10507349495000E-01 1.12396890987000E-01 
1.14318731555000E-01 1.16273423304000E-01 1.18261527781000E-01 1.20283616130000E-01 
1.22340269257000E-01 1.24432077998000E-01 1.26559643291000E-01 1.28723576343000E-01 
1.30924498811000E-01 1.33163042977000E-01 1.35439851931000E-01 1.37755579756000E-01 
1.40110891717000E-01 1.42506464449000E-01 1.44942986153000E-01 1.47421156796000E-01 
1.49941688307000E-01 1.52505304786000E-01 1.55112742711000E-01 1.57764751149000E-01 
1.60462091970000E-01 1.63205540068000E-01 1.65995883582000E-01 1.68833924124000E-01 
1.71720477008000E-01 1.74656371486000E-01 1.77642450982000E-01 1.80679573340000E-01 
1.83768611066000E-01 1.86910451581000E-01 1.90105997474000E-01 1.93356166765000E-01 
1.96661893164000E-01 2.00024126342000E-01 2.03443832204000E-01 2.06921993165000E-01 
2.10459608433000E-01 2.14057694298000E-01 2.17717284418000E-01 2.21439430125000E-01 
2.25225200717000E-01 2.29075683775000E-01 2.32991985466000E-01 2.36975230870000E-01 
2.41026564294000E-01 2.45147149609000E-01 2.49338170580000E-01 2.53600831204000E-01 
2.57936356064000E-01 2.62345990670000E-01 2.66831001825000E-01 2.71392677987000E-01 
2.76032329636000E-01 2.80751289655000E-01 2.85550913710000E-01 2.90432580640000E-01 
2.95397692853000E-01 3.00447676729000E-01 3.05583983033000E-01 3.10808087324000E-01 
3.16121490387000E-01 3.21525718661000E-01 3.27022324674000E-01 3.32612887496000E-01 
3.38299013187000E-01 3.44082335261000E-01 3.49964515155000E-01 3.55947242705000E-01 
3.62032236633000E-01 3.68221245039000E-01 3.74516045907000E-01 3.80918447611000E-01 
3.87430289436000E-01 3.94053442110000E-01 4.00789808335000E-01 4.07641323339000E-01 
4.14609955430000E-01 4.21697706562000E-01 4.28906612907000E-01 4.36238745445000E-01 
4.43696210556000E-01 4.51281150626000E-01 4.58995744660000E-01 4.66842208913000E-01 
4.74822797521000E-01 4.82939803154000E-01 4.91195557670000E-01 4.99592432788000E-01 
5.08132840767000E-01 5.16819235102000E-01 5.25654111224000E-01 5.34640007224000E-01 
5.43779504575000E-01 5.53075228878000E-01 5.62529850615000E-01 5.72146085916000E-01 
5.81926697338000E-01 5.91874494663000E-01 6.01992335700000E-01 6.12283127108000E-01 
6.22749825234000E-01 6.33395436957000E-01 6.44223020555000E-01 6.55235686583000E-01 
6.66436598768000E-01 6.77828974915000E-01 6.89416087832000E-01 7.01201266273000E-01 
7.13187895893000E-01 7.25379420217000E-01 7.37779341635000E-01 7.50391222404000E-01 
7.63218685673000E-01 7.76265416525000E-01 7.89535163032000E-01 8.03031737337000E-01 
8.16759016743000E-01 8.30720944833000E-01 8.44921532598000E-01 8.59364859592000E-01 
8.74055075104000E-01 8.88996399348000E-01 9.04193124678000E-01 9.19649616819000E-01 
9.35370316121000E-01 9.51359738839000E-01 9.67622478422000E-01 9.84163206842000E-01 
1.00098667593000E+00 1.01809771874000E+00 1.03550125095000E+00 1.05320227226000E+00 
1.07120586782000E+00 1.08951720971000E+00 1.10814155845000E+00 1.12708426443000E+00 
1.14635076954000E+00 1.16594660866000E+00 1.18587741130000E+00 1.20614890320000E+00 
1.22676690796000E+00 1.24773734874000E+00 1.26906624993000E+00 1.29075973893000E+00 
1.31282404784000E+00 1.33526551532000E+00 1.35809058837000E+00 1.38130582419000E+00 
1.40491789206000E+00 1.42893357528000E+00 1.45335977309000E+00 1.47820350266000E+00 
1.50347190112000E+00 1.52917222758000E+00 1.55531186526000E+00 1.58189832356000E+00 
1.60893924026000E+00 1.63644238369000E+00 1.66441565498000E+00 1.69286709030000E+00 
1.72180486320000E+00 1.75123728694000E+00 1.78117281688000E+00 1.81162005294000E+00 
1.84258774200000E+00 1.87408478049000E+00 1.90612021689000E+00 1.93870325437000E+00 
1.97184325340000E+00 2.00554973446000E+00 2.03983238078000E+00 2.07470104109000E+00 
2.11016573249000E+00 2.14623664329000E+00 2.18292413596000E+00 2.22023875013000E+00 
2.25819120555000E+00 2.29679240522000E+00 2.33605343853000E+00 2.37598558441000E+00 
2.41660031460000E+00 2.45790929692000E+00 2.49992439863000E+00 2.54265768988000E+00 
2.58612144710000E+00 2.63032815659000E+00 2.67529051808000E+00 2.72102144840000E+00 
2.76753408514000E+00 2.81484179050000E+00 2.86295815505000E+00 2.91189700171000E+00 
2.96167238965000E+00 3.01229861838000E+00 3.06379023183000E+00 3.11616202256000E+00 
3.16942903595000E+00 3.22360657460000E+00 3.27871020267000E+00 3.33475575035000E+00 
3.39175931845000E+00 3.44973728299000E+00 3.50870629992000E+00 3.56868330990000E+00 
3.62968554316000E+00 3.69173052446000E+00 3.75483607812000E+00 3.81902033315000E+00 
3.88430172845000E+00 3.95069901809000E+00 4.01823127674000E+00 4.08691790509000E+00 
4.15677863550000E+00 4.22783353760000E+00 4.30010302408000E+00 4.37360785657000E+00 
4.44836915159000E+00 4.52440838661000E+00 4.60174740624000E+00 4.68040842846000E+00 
4.76041405108000E+00 4.84178725817000E+00 4.92455142666000E+00 5.00873033311000E+00 
5.09434816048000E+00 5.18142950512000E+00 5.26999938381000E+00 5.36008324098000E+00 
5.45170695595000E+00 5.54489685047000E+00 5.63967969617000E+00 5.73608272234000E+00 
5.83413362371000E+00 5.93386056838000E+00 6.03529220600000E+00 6.13845767591000E+00 
6.24338661554000E+00 6.35010916896000E+00 6.45865599548000E+00 6.56905827851000E+00 
6.68134773450000E+00 6.79555662202000E+00 6.91171775108000E+00 7.02986449252000E+00 
7.15003078763000E+00 7.27225115784000E+00 7.39656071471000E+00 7.52299516997000E+00 
7.65159084578000E+00 7.78238468521000E+00 7.91541426278000E+00 8.05071779532000E+00 
8.18833415292000E+00 8.32830287009000E+00 8.47066415714000E+00 8.61545891171000E+00 
8.76272873053000E+00 8.91251592138000E+00 9.06486351520000E+00 9.21981527853000E+00 
9.37741572599000E+00 9.53771013316000E+00 9.70074454950000E+00 9.86656581167000E+00 
1.00352215569000E+01 1.02067602367000E+01 1.03812311308000E+01 1.05586843614000E+01 
1.07391709073000E+01 1.09227426188000E+01 1.11094522325000E+01 1.12993533865000E+01 
1.14925006357000E+01 1.16889494675000E+01 1.18887563180000E+01 1.20919785877000E+01 
1.22986746585000E+01 1.25089039102000E+01 1.27227267375000E+01 1.29402045677000E+01 
1.31613998778000E+01 1.33863762131000E+01 1.36151982048000E+01 1.38479315892000E+01 
1.40846432259000E+01 1.43254011177000E+01 1.45702744297000E+01 1.48193335091000E+01 
1.50726499060000E+01 1.53302963931000E+01 1.55923469874000E+01 1.58588769708000E+01 
1.61299629123000E+01 1.64056826897000E+01 1.66861155119000E+01 1.69713419418000E+01 
1.72614439194000E+01 1.75565047855000E+01 1.78566093053000E+01 1.81618436930000E+01 
1.84722956366000E+01 1.87880543229000E+01 1.91092104632000E+01 1.94358563196000E+01 
1.97680857310000E+01 2.01059941406000E+01 2.04496786228000E+01 2.07992379116000E+01 
2.11547724286000E+01 2.15163843119000E+01 2.18841774457000E+01 2.22582574899000E+01 
2.26387319103000E+01 2.30257100100000E+01 2.34193029602000E+01 2.38196238326000E+01 
2.42267876316000E+01 2.46409113275000E+01 2.50621138901000E+01 2.54905163226000E+01 
2.59262416968000E+01 2.63694151881000E+01 2.68201641118000E+01 2.72786179593000E+01 
2.77449084355000E+01 2.82191694966000E+01 2.87015373887000E+01 2.91921506867000E+01 
2.96911503343000E+01 3.01986796844000E+01 3.07148845405000E+01 3.12399131982000E+01 
3.17739164881000E+01 3.23170478189000E+01 3.28694632219000E+01 3.34313213951000E+01 
3.40027837498000E+01 3.45840144558000E+01 3.51751804896000E+01 3.57764516817000E+01 
3.63880007656000E+01 3.70100034277000E+01 3.76426383572000E+01 3.82860872980000E+01 
3.89405351003000E+01 3.96061697745000E+01 4.02831825445000E+01 4.09717679029000E+01 
4.16721236670000E+01 4.23844510355000E+01 4.31089546462000E+01 4.38458426350000E+01 
4.45953266956000E+01 4.53576221402000E+01 4.61329479615000E+01 4.69215268957000E+01 
4.77235854863000E+01 4.85393541491000E+01 4.93690672386000E+01 5.02129631155000E+01 
5.10712842147000E+01 5.19442771151000E+01 5.28321926108000E+01 5.37352857828000E+01 
5.46538160721000E+01 5.55880473549000E+01 5.65382480175000E+01 5.75046910344000E+01 
5.84876540459000E+01 5.94874194382000E+01 6.05042744247000E+01 6.15385111279000E+01 
6.25904266643000E+01 6.36603232286000E+01 6.47485081816000E+01 6.58552941376000E+01 
6.69809990550000E+01 6.81259463268000E+01 6.92904648743000E+01 7.04748892412000E+01 
7.16795596897000E+01 7.29048222982000E+01 7.41510290610000E+01 7.54185379892000E+01 
7.67077132135000E+01 7.80189250892000E+01 7.93525503019000E+01 8.07089719764000E+01 
8.20885797864000E+01 8.34917700665000E+01 8.49189459261000E+01 8.63705173652000E+01 
8.78469013923000E+01 8.93485221439000E+01 9.08758110065000E+01 9.24292067407000E+01 
9.40091556070000E+01 9.56161114943000E+01 9.72505360497000E+01 9.89128988119000E+01 
1.00603677345000E+02 1.02323357378000E+02 1.04072432942000E+02 1.05851406510000E+02 
1.07660789150000E+02 1.09501100660000E+02 1.11372869727000E+02 1.13276634074000E+02 
1.15212940616000E+02 1.17182345615000E+02 1.19185414845000E+02 1.21222723747000E+02 
1.23294857602000E+02 1.25402411694000E+02 1.27545991481000E+02 1.29726212773000E+02 
1.31943701905000E+02 1.34199095919000E+02 1.36493042747000E+02 1.38826201394000E+02 
1.41199242131000E+02 1.43612846688000E+02 1.46067708447000E+02 1.48564532641000E+02 
1.51104036561000E+02 1.53686949756000E+02 1.56314014247000E+02 1.58985984739000E+02 
1.61703628838000E+02 1.64467727269000E+02 1.67279074106000E+02 1.70138476994000E+02 
1.73046757383000E+02 1.76004750767000E+02 1.79013306919000E+02 1.82073290140000E+02 
1.85185579503000E+02 1.88351069110000E+02 1.91570668344000E+02 1.94845302133000E+02 
1.98175911217000E+02 2.01563452415000E+02 2.05008898902000E+02 
</PP_R>
    <PP_RAB>
5.67739848068000E-07 5.77444568426000E-07 5.87315177433000E-07 5.97354510727000E-07 
6.07565452411000E-07 6.17950935894000E-07 6.28513944722000E-07 6.39257513445000E-07 
6.50184728481000E-07 6.61298729007000E-07 6.72602707862000E-07 6.84099912460000E-07 
6.95793645724000E-07 7.07687267039000E-07 7.19784193211000E-07 7.32087899453000E-07 
7.44601920382000E-07 7.57329851035000E-07 7.70275347898000E-07 7.83442129964000E-07 
7.96833979793000E-07 8.10454744606000E-07 8.24308337383000E-07 8.38398737995000E-07 
8.52729994340000E-07 8.67306223512000E-07 8.82131612978000E-07 8.97210421787000E-07 
9.12546981789000E-07 9.28145698879000E-07 9.44011054269000E-07 9.60147605767000E-07 
9.76559989093000E-07 9.93252919206000E-07 1.01023119166000E-06 1.02749968399000E-06 
1.04506335710000E-06 1.06292725668000E-06 1.08109651470000E-06 1.09957635083000E-06 
1.11837207396000E-06 1.13748908375000E-06 1.15693287214000E-06 1.17670902496000E-06 
1.19682322351000E-06 1.21728124621000E-06 1.23808897026000E-06 1.25925237331000E-06 
1.28077753521000E-06 1.30267063970000E-06 1.32493797626000E-06 1.34758594186000E-06 
1.37062104283000E-06 1.39404989670000E-06 1.41787923413000E-06 1.44211590083000E-06 
1.46676685951000E-06 1.49183919194000E-06 1.51734010089000E-06 1.54327691230000E-06 
1.56965707729000E-06 1.59648817440000E-06 1.62377791166000E-06 1.65153412889000E-06 
1.67976479992000E-06 1.70847803487000E-06 1.73768208250000E-06 1.76738533257000E-06 
1.79759631824000E-06 1.82832371855000E-06 1.85957636089000E-06 1.89136322353000E-06 
1.92369343822000E-06 1.95657629282000E-06 1.99002123392000E-06 2.02403786961000E-06 
2.05863597222000E-06 2.09382548110000E-06 2.12961650553000E-06 2.16601932757000E-06 
2.20304440505000E-06 2.24070237456000E-06 2.27900405449000E-06 2.31796044820000E-06 
2.35758274708000E-06 2.39788233387000E-06 2.43887078585000E-06 2.48055987821000E-06 
2.52296158743000E-06 2.56608809468000E-06 2.60995178940000E-06 2.65456527275000E-06 
2.69994136134000E-06 2.74609309084000E-06 2.79303371974000E-06 2.84077673318000E-06 
2.88933584681000E-06 2.93872501072000E-06 2.98895841345000E-06 3.04005048610000E-06 
3.09201590642000E-06 3.14486960308000E-06 3.19862675993000E-06 3.25330282034000E-06 
3.30891349170000E-06 3.36547474988000E-06 3.42300284382000E-06 3.48151430025000E-06 
3.54102592836000E-06 3.60155482470000E-06 3.66311837805000E-06 3.72573427443000E-06 
3.78942050216000E-06 3.85419535708000E-06 3.92007744774000E-06 3.98708570080000E-06 
4.05523936642000E-06 4.12455802385000E-06 4.19506158698000E-06 4.26677031012000E-06 
4.33970479381000E-06 4.41388599071000E-06 4.48933521164000E-06 4.56607413171000E-06 
4.64412479651000E-06 4.72350962851000E-06 4.80425143341000E-06 4.88637340679000E-06 
4.96989914069000E-06 5.05485263044000E-06 5.14125828153000E-06 5.22914091665000E-06 
5.31852578276000E-06 5.40943855841000E-06 5.50190536108000E-06 5.59595275469000E-06 
5.69160775724000E-06 5.78889784857000E-06 5.88785097823000E-06 5.98849557353000E-06 
6.09086054774000E-06 6.19497530831000E-06 6.30086976542000E-06 6.40857434048000E-06 
6.51811997494000E-06 6.62953813913000E-06 6.74286084135000E-06 6.85812063700000E-06 
6.97535063800000E-06 7.09458452227000E-06 7.21585654338000E-06 7.33920154044000E-06 
7.46465494808000E-06 7.59225280665000E-06 7.72203177253000E-06 7.85402912871000E-06 
7.98828279547000E-06 8.12483134130000E-06 8.26371399396000E-06 8.40497065173000E-06 
8.54864189493000E-06 8.69476899753000E-06 8.84339393900000E-06 8.99455941643000E-06 
9.14830885672000E-06 9.30468642913000E-06 9.46373705789000E-06 9.62550643517000E-06 
9.79004103419000E-06 9.95738812256000E-06 1.01275957758000E-05 1.03007128914000E-05 
1.04767892025000E-05 1.06558752924000E-05 1.08380226090000E-05 1.10232834798000E-05 
1.12117111266000E-05 1.14033596811000E-05 1.15982842002000E-05 1.17965406819000E-05 
1.19981860814000E-05 1.22032783277000E-05 1.24118763396000E-05 1.26240400435000E-05 
1.28398303897000E-05 1.30593093708000E-05 1.32825400387000E-05 1.35095865234000E-05 
1.37405140509000E-05 1.39753889621000E-05 1.42142787322000E-05 1.44572519895000E-05 
1.47043785355000E-05 1.49557293649000E-05 1.52113766860000E-05 1.54713939412000E-05 
1.57358558286000E-05 1.60048383228000E-05 1.62784186973000E-05 1.65566755466000E-05 
1.68396888083000E-05 1.71275397868000E-05 1.74203111761000E-05 1.77180870836000E-05 
1.80209530547000E-05 1.83289960969000E-05 1.86423047049000E-05 1.89609688864000E-05 
1.92850801873000E-05 1.96147317186000E-05 1.99500181828000E-05 2.02910359011000E-05 
2.06378828414000E-05 2.09906586460000E-05 2.13494646607000E-05 2.17144039635000E-05 
2.20855813944000E-05 2.24631035854000E-05 2.28470789913000E-05 2.32376179210000E-05 
2.36348325686000E-05 2.40388370463000E-05 2.44497474167000E-05 2.48676817264000E-05 
2.52927600398000E-05 2.57251044738000E-05 2.61648392324000E-05 2.66120906431000E-05 
2.70669871925000E-05 2.75296595635000E-05 2.80002406729000E-05 2.84788657097000E-05 
2.89656721735000E-05 2.94607999145000E-05 2.99643911731000E-05 3.04765906215000E-05 
3.09975454046000E-05 3.15274051827000E-05 3.20663221743000E-05 3.26144511996000E-05 
3.31719497257000E-05 3.37389779111000E-05 3.43156986519000E-05 3.49022776289000E-05 
3.54988833548000E-05 3.61056872231000E-05 3.67228635566000E-05 3.73505896581000E-05 
3.79890458613000E-05 3.86384155823000E-05 3.92988853724000E-05 3.99706449718000E-05 
4.06538873640000E-05 4.13488088314000E-05 4.20556090114000E-05 4.27744909541000E-05 
4.35056611803000E-05 4.42493297410000E-05 4.50057102780000E-05 4.57750200846000E-05 
4.65574801687000E-05 4.73533153160000E-05 4.81627541544000E-05 4.89860292200000E-05 
4.98233770240000E-05 5.06750381200000E-05 5.15412571739000E-05 5.24222830336000E-05 
5.33183688008000E-05 5.42297719037000E-05 5.51567541705000E-05 5.60995819056000E-05 
5.70585259649000E-05 5.80338618346000E-05 5.90258697099000E-05 6.00348345752000E-05 
6.10610462869000E-05 6.21047996555000E-05 6.31663945313000E-05 6.42461358900000E-05 
6.53443339202000E-05 6.64613041132000E-05 6.75973673527000E-05 6.87528500078000E-05 
6.99280840262000E-05 7.11234070301000E-05 7.23391624125000E-05 7.35756994364000E-05 
7.48333733350000E-05 7.61125454137000E-05 7.74135831539000E-05 7.87368603184000E-05 
8.00827570593000E-05 8.14516600267000E-05 8.28439624798000E-05 8.42600644002000E-05 
8.57003726067000E-05 8.71653008718000E-05 8.86552700411000E-05 9.01707081540000E-05 
9.17120505664000E-05 9.32797400762000E-05 9.48742270504000E-05 9.64959695540000E-05 
9.81454334825000E-05 9.98230926948000E-05 1.01529429150000E-04 1.03264933045000E-04 
1.05030102958000E-04 1.06825445986000E-04 1.08651477899000E-04 1.10508723278000E-04 
1.12397715675000E-04 1.14318997760000E-04 1.16273121482000E-04 1.18260648221000E-04 
1.20282148957000E-04 1.22338204426000E-04 1.24429405293000E-04 1.26556352322000E-04 
1.28719656541000E-04 1.30919939426000E-04 1.33157833077000E-04 1.35433980397000E-04 
1.37749035278000E-04 1.40103662792000E-04 1.42498539377000E-04 1.44934353034000E-04 
1.47411803527000E-04 1.49931602579000E-04 1.52494474078000E-04 1.55101154289000E-04 
1.57752392060000E-04 1.60448949041000E-04 1.63191599900000E-04 1.65981132548000E-04 
1.68818348364000E-04 1.71704062424000E-04 1.74639103738000E-04 1.77624315488000E-04 
1.80660555266000E-04 1.83748695326000E-04 1.86889622831000E-04 1.90084240107000E-04 
1.93333464908000E-04 1.96638230672000E-04 1.99999486794000E-04 2.03418198899000E-04 
2.06895349116000E-04 2.10431936363000E-04 2.14028976634000E-04 2.17687503287000E-04 
2.21408567348000E-04 2.25193237806000E-04 2.29042601924000E-04 2.32957765549000E-04 
2.36939853432000E-04 2.40990009550000E-04 2.45109397434000E-04 2.49299200505000E-04 
2.53560622413000E-04 2.57894887380000E-04 2.62303240558000E-04 2.66786948382000E-04 
2.71347298933000E-04 2.75985602312000E-04 2.80703191014000E-04 2.85501420312000E-04 
2.90381668642000E-04 2.95345338007000E-04 3.00393854372000E-04 3.05528668079000E-04 
3.10751254260000E-04 3.16063113263000E-04 3.21465771082000E-04 3.26960779797000E-04 
3.32549718016000E-04 3.38234191335000E-04 3.44015832792000E-04 3.49896303340000E-04 
3.55877292326000E-04 3.61960517971000E-04 3.68147727868000E-04 3.74440699484000E-04 
3.80841240668000E-04 3.87351190170000E-04 3.93972418173000E-04 4.00706826828000E-04 
4.07556350801000E-04 4.14522957827000E-04 4.21608649277000E-04 4.28815460734000E-04 
4.36145462574000E-04 4.43600760566000E-04 4.51183496473000E-04 4.58895848668000E-04 
4.66740032759000E-04 4.74718302231000E-04 4.82832949084000E-04 4.91086304500000E-04 
4.99480739509000E-04 5.08018665669000E-04 5.16702535761000E-04 5.25534844492000E-04 
5.34518129215000E-04 5.43654970654000E-04 5.52947993645000E-04 5.62399867894000E-04 
5.72013308743000E-04 5.81791077947000E-04 5.91735984469000E-04 6.01850885288000E-04 
6.12138686221000E-04 6.22602342753000E-04 6.33244860890000E-04 6.44069298022000E-04 
6.55078763800000E-04 6.66276421030000E-04 6.77665486583000E-04 6.89249232317000E-04 
7.01030986018000E-04 7.13014132356000E-04 7.25202113856000E-04 7.37598431890000E-04 