<UPF version="2.0.1">
  <PP_INFO>
Generated using Vanderbilt code, version   7  3  6
Author: kfg        Generation date:   13    5 2013
Automatically converted from original USPP format to UPF.v1.

Futher converted to UPF.v2 format.
Convert Q_IJ to Q_IJL use the same routine as 'upflib/upf_to_internal.f90' of QE.
The conversion is done by using PseudoPotentialIO.jl package.
Converted by: JYU on 2024-04-30

1        The Pseudo was generated with a Scalar-Relativistic Calculation
1.80000000000E+00    Local Potential cutoff radius
nl pn  l   occ               Rcut            Rcut US             E pseu
3S  3  0  2.00      0.00000000000      1.35000000000     -9.49834276500
3P  3  1  6.00      0.00000000000      1.40000000000     -6.12996941000
3D  3  2 10.00      0.00000000000      1.60000000000     -0.74531401300
4S  4  0  2.00      0.00000000000      1.35000000000     -0.43943839100
4P  4  1  0.00      0.00000000000      1.40000000000     -0.08199154900
</PP_INFO>
  <PP_HEADER element="Zn" pseudo_type="US" relativistic="scalar" is_ultrasoft="T" is_paw="F" is_coulomb="F" has_so="F" has_wfc="F" has_gipaw="F" core_correction="F" functional="PBE" z_valence="20.0" total_psenergy="-461.477308361" wfc_cutoff="0.0" rho_cutoff="0.0" l_max="2" mesh_size="943" number_of_wfc="5" number_of_proj="6"/>
  <PP_MESH>
    <PP_R>
0.00000000000000E+00 5.10846319546000E-07 1.03027809112000E-06 1.55843960465000E-06 
2.09547757508000E-06 2.64154118307000E-06 3.19678211647000E-06 3.76135461243000E-06 
4.33541550030000E-06 4.91912424510000E-06 5.51264299192000E-06 6.11613661089000E-06 
6.72977274301000E-06 7.35372184670000E-06 7.98815724517000E-06 8.63325517456000E-06 
9.28919483287000E-06 9.95615842980000E-06 1.06343312373000E-05 1.13239016411000E-05 
1.20250611928000E-05 1.27380046637000E-05 1.34629300981000E-05 1.42000388688000E-05 
1.49495357331000E-05 1.57116288893000E-05 1.64865300349000E-05 1.72744544251000E-05 
1.80756209330000E-05 1.88902521099000E-05 1.97185742474000E-05 2.05608174405000E-05 
2.14172156510000E-05 2.22880067727000E-05 2.31734326977000E-05 2.40737393834000E-05 
2.49891769206000E-05 2.59199996036000E-05 2.68664660001000E-05 2.78288390236000E-05 
2.88073860060000E-05 2.98023787723000E-05 3.08140937158000E-05 3.18428118749000E-05 
3.28888190112000E-05 3.39524056891000E-05 3.50338673561000E-05 3.61335044251000E-05 
3.72516223580000E-05 3.83885317504000E-05 3.95445484175000E-05 4.07199934828000E-05 
4.19151934661000E-05 4.31304803753000E-05 4.43661917977000E-05 4.56226709946000E-05 
4.69002669960000E-05 4.81993346979000E-05 4.95202349607000E-05 5.08633347098000E-05 
5.22290070371000E-05 5.36176313046000E-05 5.50295932504000E-05 5.64652850951000E-05 
5.79251056513000E-05 5.94094604341000E-05 6.09187617738000E-05 6.24534289304000E-05 
6.40138882103000E-05 6.56005730845000E-05 6.72139243088000E-05 6.88543900468000E-05 
7.05224259940000E-05 7.22184955045000E-05 7.39430697195000E-05 7.56966276985000E-05 
7.74796565523000E-05 7.92926515781000E-05 8.11361163972000E-05 8.30105630952000E-05 
8.49165123637000E-05 8.68544936453000E-05 8.88250452805000E-05 9.08287146576000E-05 
9.28660583643000E-05 9.49376423424000E-05 9.70440420452000E-05 9.91858425974000E-05 
1.01363638957000E-04 1.03578036082000E-04 1.05829649097000E-04 1.08119103464000E-04 
1.10447035157000E-04 1.12814090840000E-04 1.15220928042000E-04 1.17668215346000E-04 
1.20156632569000E-04 1.22686870953000E-04 1.25259633360000E-04 1.27875634462000E-04 
1.30535600943000E-04 1.33240271699000E-04 1.35990398045000E-04 1.38786743924000E-04 
1.41630086115000E-04 1.44521214454000E-04 1.47460932052000E-04 1.50450055514000E-04 
1.53489415174000E-04 1.56579855315000E-04 1.59722234415000E-04 1.62917425376000E-04 
1.66166315772000E-04 1.69469808094000E-04 1.72828819999000E-04 1.76244284567000E-04 
1.79717150562000E-04 1.83248382690000E-04 1.86838961872000E-04 1.90489885514000E-04 
1.94202167784000E-04 1.97976839897000E-04 2.01814950397000E-04 2.05717565450000E-04 
2.09685769141000E-04 2.13720663774000E-04 2.17823370179000E-04 2.21995028024000E-04 
2.26236796128000E-04 2.30549852789000E-04 2.34935396105000E-04 2.39394644311000E-04 
2.43928836116000E-04 2.48539231046000E-04 2.53227109796000E-04 2.57993774586000E-04 
2.62840549518000E-04 2.67768780952000E-04 2.72779837871000E-04 2.77875112269000E-04 
2.83056019531000E-04 2.88323998833000E-04 2.93680513535000E-04 2.99127051593000E-04 
3.04665125969000E-04 3.10296275053000E-04 3.16022063089000E-04 3.21844080610000E-04 
3.27763944881000E-04 3.33783300347000E-04 3.39903819090000E-04 3.46127201292000E-04 
3.52455175712000E-04 3.58889500161000E-04 3.65431961993000E-04 3.72084378599000E-04 
3.78848597917000E-04 3.85726498940000E-04 3.92719992239000E-04 3.99831020498000E-04 
4.07061559046000E-04 4.14413616415000E-04 4.21889234888000E-04 4.29490491076000E-04 
4.37219496486000E-04 4.45078398115000E-04 4.53069379041000E-04 4.61194659032000E-04 
4.69456495164000E-04 4.77857182443000E-04 4.86399054448000E-04 4.95084483977000E-04 
5.03915883703000E-04 5.12895706851000E-04 5.22026447874000E-04 5.31310643146000E-04 
5.40750871672000E-04 5.50349755798000E-04 5.60109961941000E-04 5.70034201334000E-04 
5.80125230773000E-04 5.90385853386000E-04 6.00818919413000E-04 6.11427326994000E-04 
6.22214022979000E-04 6.33182003739000E-04 6.44334316008000E-04 6.55674057722000E-04 
6.67204378881000E-04 6.78928482427000E-04 6.90849625131000E-04 7.02971118498000E-04 
7.15296329687000E-04 7.27828682447000E-04 7.40571658069000E-04 7.53528796348000E-04 
7.66703696575000E-04 7.80100018528000E-04 7.93721483493000E-04 8.07571875299000E-04 
8.21655041365000E-04 8.35974893773000E-04 8.50535410352000E-04 8.65340635783000E-04 
8.80394682725000E-04 8.95701732952000E-04 9.11266038523000E-04 9.27091922956000E-04 
9.43183782431000E-04 9.59546087013000E-04 9.76183381892000E-04 9.93100288645000E-04 
1.01030150652000E-03 1.02779181375000E-03 1.04557606886000E-03 1.06365921204000E-03 
1.08204626649000E-03 1.10074233986000E-03 1.11975262561000E-03 1.13908240451000E-03 
1.15873704606000E-03 1.17872201000000E-03 1.19904284786000E-03 1.21970520442000E-03 
1.24071481938000E-03 1.26207752887000E-03 1.28379926712000E-03 1.30588606807000E-03 
1.32834406709000E-03 1.35117950267000E-03 1.37439871812000E-03 1.39800816338000E-03 
1.42201439678000E-03 1.44642408686000E-03 1.47124401427000E-03 1.49648107357000E-03 
1.52214227523000E-03 1.54823474752000E-03 1.57476573852000E-03 1.60174261812000E-03 
1.62917288008000E-03 1.65706414408000E-03 1.68542415787000E-03 1.71426079943000E-03 
1.74358207911000E-03 1.77339614191000E-03 1.80371126970000E-03 1.83453588353000E-03 
1.86587854602000E-03 1.89774796364000E-03 1.93015298923000E-03 1.96310262438000E-03 
1.99660602199000E-03 2.03067248877000E-03 2.06531148784000E-03 2.10053264137000E-03 
2.13634573325000E-03 2.17276071178000E-03 2.20978769247000E-03 2.24743696084000E-03 
2.28571897524000E-03 2.32464436983000E-03 2.36422395746000E-03 2.40446873271000E-03 
2.44538987496000E-03 2.48699875144000E-03 2.52930692045000E-03 2.57232613452000E-03 
2.61606834372000E-03 2.66054569893000E-03 2.70577055528000E-03 2.75175547550000E-03 
2.79851323348000E-03 2.84605681779000E-03 2.89439943529000E-03 2.94355451479000E-03 
2.99353571080000E-03 3.04435690729000E-03 3.09603222161000E-03 3.14857600833000E-03 
3.20200286330000E-03 3.25632762763000E-03 3.31156539191000E-03 3.36773150030000E-03 
3.42484155487000E-03 3.48291141988000E-03 3.54195722623000E-03 3.60199537590000E-03 
3.66304254656000E-03 3.72511569614000E-03 3.78823206757000E-03 3.85240919360000E-03 
3.91766490161000E-03 3.98401731861000E-03 4.05148487625000E-03 4.12008631595000E-03 
4.18984069412000E-03 4.26076738741000E-03 4.33288609814000E-03 4.40621685975000E-03 
4.48078004237000E-03 4.55659635847000E-03 4.63368686863000E-03 4.71207298737000E-03 
4.79177648911000E-03 4.87281951425000E-03 4.95522457524000E-03 5.03901456291000E-03 
5.12421275279000E-03 5.21084281160000E-03 5.29892880380000E-03 5.38849519829000E-03 
5.47956687520000E-03 5.57216913280000E-03 5.66632769453000E-03 5.76206871616000E-03 
5.85941879303000E-03 5.95840496746000E-03 6.05905473624000E-03 6.16139605828000E-03 
6.26545736240000E-03 6.37126755517000E-03 6.47885602900000E-03 6.58825267027000E-03 
6.69948786764000E-03 6.81259252048000E-03 6.92759804748000E-03 7.04453639537000E-03 
7.16344004777000E-03 7.28434203424000E-03 7.40727593943000E-03 7.53227591245000E-03 
7.65937667631000E-03 7.78861353761000E-03 7.92002239629000E-03 8.05363975567000E-03 
8.18950273254000E-03 8.32764906748000E-03 8.46811713537000E-03 8.61094595601000E-03 
8.75617520501000E-03 8.90384522474000E-03 9.05399703562000E-03 9.20667234743000E-03 
9.36191357098000E-03 9.51976382982000E-03 9.68026697226000E-03 9.84346758355000E-03 
1.00094109982000E-02 1.01781433127000E-02 1.03497113983000E-02 1.05241629138000E-02 
1.07015463191000E-02 1.08819108885000E-02 1.10653067244000E-02 1.12517847714000E-02 
1.14413968300000E-02 1.16341955715000E-02 1.18302345524000E-02 1.20295682291000E-02 
1.22322519735000E-02 1.24383420879000E-02 1.26478958208000E-02 1.28609713830000E-02 
1.30776279634000E-02 1.32979257460000E-02 1.35219259258000E-02 1.37496907267000E-02 
1.39812834181000E-02 1.42167683328000E-02 1.44562108847000E-02 1.46996775873000E-02 
1.49472360717000E-02 1.51989551058000E-02 1.54549046132000E-02 1.57151556925000E-02 
1.59797806375000E-02 1.62488529567000E-02 1.65224473942000E-02 1.68006399502000E-02 
1.70835079022000E-02 1.73711298265000E-02 1.76635856199000E-02 1.79609565219000E-02 
1.82633251376000E-02 1.85707754601000E-02 1.88833928944000E-02 1.92012642805000E-02 
1.95244779181000E-02 1.98531235910000E-02 2.01872925916000E-02 2.05270777468000E-02 
2.08725734436000E-02 2.12238756552000E-02 2.15810819679000E-02 2.19442916078000E-02 
2.23136054690000E-02 2.26891261409000E-02 2.30709579374000E-02 2.34592069251000E-02 
2.38539809536000E-02 2.42553896849000E-02 2.46635446239000E-02 2.50785591496000E-02 
2.55005485466000E-02 2.59296300369000E-02 2.63659228124000E-02 2.68095480684000E-02 
2.72606290371000E-02 2.77192910215000E-02 2.81856614308000E-02 2.86598698153000E-02 
2.91420479026000E-02 2.96323296341000E-02 3.01308512023000E-02 3.06377510888000E-02 
3.11531701022000E-02 3.16772514178000E-02 3.22101406172000E-02 3.27519857285000E-02 
3.33029372678000E-02 3.38631482807000E-02 3.44327743849000E-02 3.50119738137000E-02 
3.56009074594000E-02 3.61997389185000E-02 3.68086345370000E-02 3.74277634564000E-02 
3.80572976610000E-02 3.86974120254000E-02 3.93482843633000E-02 4.00100954768000E-02 
4.06830292065000E-02 4.13672724828000E-02 4.20630153776000E-02 4.27704511574000E-02 
4.34897763366000E-02 4.42211907325000E-02 4.49648975203000E-02 4.57211032902000E-02 
4.64900181040000E-02 4.72718555543000E-02 4.80668328230000E-02 4.88751707424000E-02 
4.96970938559000E-02 5.05328304808000E-02 5.13826127715000E-02 5.22466767842000E-02 
5.31252625421000E-02 5.40186141026000E-02 5.49269796245000E-02 5.58506114375000E-02 
5.67897661119000E-02 5.77447045301000E-02 5.87156919588000E-02 5.97029981230000E-02 
6.07068972808000E-02 6.17276682996000E-02 6.27655947333000E-02 6.38209649016000E-02 
6.48940719696000E-02 6.59852140296000E-02 6.70946941835000E-02 6.82228206274000E-02 
6.93699067371000E-02 7.05362711549000E-02 7.17222378785000E-02 7.29281363506000E-02 
7.41543015509000E-02 7.54010740886000E-02 7.66688002976000E-02 7.79578323320000E-02 
7.92685282647000E-02 8.06012521863000E-02 8.19563743064000E-02 8.33342710566000E-02 
8.47353251947000E-02 8.61599259117000E-02 8.76084689389000E-02 8.90813566589000E-02 
9.05789982164000E-02 9.21018096329000E-02 9.36502139210000E-02 9.52246412033000E-02 
9.68255288305000E-02 9.84533215042000E-02 1.00108471399000E-01 1.01791438290000E-01 
1.03502689679000E-01 1.05242700924000E-01 1.07011955373000E-01 1.08810944497000E-01 
1.10640168026000E-01 1.12500134090000E-01 1.14391359358000E-01 1.16314369183000E-01 
1.18269697747000E-01 1.20257888208000E-01 1.22279492855000E-01 1.24335073258000E-01 
1.26425200424000E-01 1.28550454958000E-01 1.30711427221000E-01 1.32908717499000E-01 
1.35142936163000E-01 1.37414703843000E-01 1.39724651603000E-01 1.42073421107000E-01 
1.44461664807000E-01 1.46890046121000E-01 1.49359239612000E-01 1.51869931186000E-01 
1.54422818271000E-01 1.57018610021000E-01 1.59658027504000E-01 1.62341803909000E-01 
1.65070684748000E-01 1.67845428059000E-01 1.70666804623000E-01 1.73535598174000E-01 
1.76452605617000E-01 1.79418637251000E-01 1.82434516992000E-01 1.85501082605000E-01 
1.88619185932000E-01 1.91789693135000E-01 1.95013484928000E-01 1.98291456832000E-01 
2.01624519415000E-01 2.05013598548000E-01 2.08459635666000E-01 2.11963588021000E-01 
2.15526428958000E-01 2.19149148176000E-01 2.22832752010000E-01 2.26578263708000E-01 
2.30386723712000E-01 2.34259189954000E-01 2.38196738143000E-01 2.42200462067000E-01 
2.46271473899000E-01 2.50410904500000E-01 2.54619903740000E-01 2.58899640811000E-01 
2.63251304558000E-01 2.67676103803000E-01 2.72175267687000E-01 2.76750046005000E-01 
2.81401709559000E-01 2.86131550507000E-01 2.90940882725000E-01 2.95831042169000E-01 
3.00803387249000E-01 3.05859299203000E-01 3.11000182483000E-01 3.16227465146000E-01 
3.21542599249000E-01 3.26947061252000E-01 3.32442352428000E-01 3.38029999284000E-01 
3.43711553979000E-01 3.49488594759000E-01 3.55362726395000E-01 3.61335580628000E-01 
3.67408816623000E-01 3.73584121428000E-01 3.79863210446000E-01 3.86247827909000E-01 
3.92739747362000E-01 3.99340772158000E-01 4.06052735958000E-01 4.12877503239000E-01 
4.19816969814000E-01 4.26873063357000E-01 4.34047743939000E-01 4.41343004573000E-01 
4.48760871768000E-01 4.56303406090000E-01 4.63972702735000E-01 4.71770892114000E-01 
4.79700140439000E-01 4.87762650332000E-01 4.95960661430000E-01 5.04296451011000E-01 
5.12772334626000E-01 5.21390666741000E-01 5.30153841393000E-01 5.39064292853000E-01 
5.48124496304000E-01 5.57336968528000E-01 5.66704268604000E-01 5.76228998620000E-01 
5.85913804395000E-01 5.95761376216000E-01 6.05774449583000E-01 6.15955805968000E-01 
6.26308273593000E-01 6.36834728209000E-01 6.47538093899000E-01 6.58421343889000E-01 
6.69487501374000E-01 6.80739640358000E-01 6.92180886507000E-01 7.03814418019000E-01 
7.15643466505000E-01 7.27671317889000E-01 7.39901313316000E-01 7.52336850087000E-01 
7.64981382598000E-01 7.77838423299000E-01 7.90911543675000E-01 8.04204375230000E-01 
8.17720610505000E-01 8.31464004095000E-01 8.45438373698000E-01 8.59647601174000E-01 
8.74095633622000E-01 8.88786484476000E-01 9.03724234623000E-01 9.18913033535000E-01 
9.34357100419000E-01 9.50060725393000E-01 9.66028270678000E-01 9.82264171803000E-01 
9.98772938848000E-01 1.01555915769000E+00 1.03262749126000E+00 1.04998268089000E+00 
1.06762954757000E+00 1.08557299333000E+00 1.10381800256000E+00 1.12236964344000E+00 
1.14123306933000E+00 1.16041352019000E+00 1.17991632404000E+00 1.19974689846000E+00 
1.21991075206000E+00 1.24041348604000E+00 1.26126079575000E+00 1.28245847224000E+00 
1.30401240387000E+00 1.32592857801000E+00 1.34821308260000E+00 1.37087210795000E+00 
1.39391194836000E+00 1.41733900394000E+00 1.44115978235000E+00 1.46538090064000E+00 
1.49000908704000E+00 1.51505118289000E+00 1.54051414446000E+00 1.56640504499000E+00 
1.59273107654000E+00 1.61949955207000E+00 1.64671790745000E+00 1.67439370350000E+00 
1.70253462813000E+00 1.73114849843000E+00 1.76024326289000E+00 1.78982700357000E+00 
1.81990793837000E+00 1.85049442330000E+00 1.88159495481000E+00 1.91321817212000E+00 
1.94537285966000E+00 1.97806794951000E+00 2.01131252385000E+00 2.04511581748000E+00 
2.07948722043000E+00 2.11443628054000E+00 2.14997270610000E+00 2.18610636856000E+00 
2.22284730530000E+00 2.26020572236000E+00 2.29819199731000E+00 2.33681668216000E+00 
2.37609050622000E+00 2.41602437914000E+00 2.45662939392000E+00 2.49791683000000E+00 
2.53989815637000E+00 2.58258503478000E+00 2.62598932297000E+00 2.67012307797000E+00 
2.71499855943000E+00 2.76062823307000E+00 2.80702477407000E+00 2.85420107067000E+00 
2.90217022770000E+00 2.95094557023000E+00 3.00054064729000E+00 3.05096923559000E+00 
3.10224534341000E+00 3.15438321443000E+00 3.20739733174000E+00 3.26130242183000E+00 
3.31611345867000E+00 3.37184566790000E+00 3.42851453105000E+00 3.48613578984000E+00 
3.54472545054000E+00 3.60429978844000E+00 3.66487535234000E+00 3.72646896918000E+00 
3.78909774870000E+00 3.85277908817000E+00 3.91753067728000E+00 3.98337050299000E+00 
4.05031685456000E+00 4.11838832863000E+00 4.18760383439000E+00 4.25798259880000E+00 
4.32954417198000E+00 4.40230843261000E+00 4.47629559343000E+00 4.55152620693000E+00 
4.62802117097000E+00 4.70580173465000E+00 4.78488950418000E+00 4.86530644890000E+00 
4.94707490735000E+00 5.03021759354000E+00 5.11475760318000E+00 5.20071842015000E+00 
5.28812392301000E+00 5.37699839163000E+00 5.46736651393000E+00 5.55925339275000E+00 
5.65268455282000E+00 5.74768594783000E+00 5.84428396767000E+00 5.94250544575000E+00 
6.04237766644000E+00 6.14392837267000E+00 6.24718577361000E+00 6.35217855256000E+00 
6.45893587483000E+00 6.56748739593000E+00 6.67786326976000E+00 6.79009415699000E+00 
6.90421123360000E+00 7.02024619949000E+00 7.13823128736000E+00 7.25819927159000E+00 
7.38018347741000E+00 7.50421779009000E+00 7.63033666440000E+00 7.75857513419000E+00 
7.88896882207000E+00 8.02155394934000E+00 8.15636734608000E+00 8.29344646129000E+00 
8.43282937341000E+00 8.57455480079000E+00 8.71866211254000E+00 8.86519133937000E+00 
9.01418318481000E+00 9.16567903642000E+00 9.31972097737000E+00 9.47635179807000E+00 
9.63561500809000E+00 9.79755484823000E+00 9.96221630284000E+00 1.01296451122000E+01 
1.02998877855000E+01 1.04729916135000E+01 1.06490046815000E+01 1.08279758833000E+01 
1.10099549343000E+01 1.11949923853000E+01 1.13831396368000E+01 1.15744489532000E+01 
1.17689734772000E+01 1.19667672446000E+01 1.21678851994000E+01 1.23723832091000E+01 
1.25803180798000E+01 1.27917475726000E+01 1.30067304194000E+01 1.32253263389000E+01 
1.34475960537000E+01 1.36736013067000E+01 1.39034048787000E+01 1.41370706054000E+01 
1.43746633956000E+01 1.46162492486000E+01 1.48618952734000E+01 1.51116697063000E+01 
1.53656419309000E+01 1.56238824967000E+01 1.58864631387000E+01 1.61534567977000E+01 
1.64249376404000E+01 1.67009810798000E+01 1.69816637964000E+01 1.72670637595000E+01 
1.75572602487000E+01 1.78523338760000E+01 1.81523666081000E+01 1.84574417895000E+01 
1.87676441651000E+01 1.90830599044000E+01 1.94037766248000E+01 1.97298834163000E+01 
2.00614708663000E+01 2.03986310846000E+01 2.07414577289000E+01 2.10900460310000E+01 
2.14444928233000E+01 2.18048965655000E+01 2.21713573721000E+01 2.25439770400000E+01 
2.29228590772000E+01 2.33081087311000E+01 2.36998330180000E+01 2.40981407526000E+01 
2.45031425787000E+01 2.49149509992000E+01 2.53336804081000E+01 2.57594471218000E+01 
2.61923694115000E+01 2.66325675363000E+01 2.70801637762000E+01 2.75352824664000E+01 
2.79980500316000E+01 2.84685950215000E+01 2.89470481459000E+01 2.94335423116000E+01 
2.99282126589000E+01 3.04311965996000E+01 3.09426338546000E+01 3.14626664930000E+01 
3.19914389717000E+01 3.25290981755000E+01 3.30757934574000E+01 3.36316766809000E+01 
3.41969022615000E+01 3.47716272099000E+01 3.53560111757000E+01 3.59502164916000E+01 
3.65544082182000E+01 3.71687541907000E+01 3.77934250645000E+01 3.84285943634000E+01 
3.90744385274000E+01 3.97311369618000E+01 4.03988720870000E+01 4.10778293894000E+01 
4.17681974725000E+01 4.24701681097000E+01 4.31839362974000E+01 4.39097003090000E+01 
4.46476617504000E+01 4.53980256156000E+01 4.61610003438000E+01 4.69367978774000E+01 
4.77256337207000E+01 4.85277269997000E+01 4.93433005234000E+01 5.01725808452000E+01 
5.10157983261000E+01 5.18731871985000E+01 5.27449856316000E+01 5.36314357972000E+01 
5.45327839371000E+01 5.54492804317000E+01 5.63811798692000E+01 5.73287411165000E+01 
5.82922273911000E+01 5.92719063345000E+01 6.02680500858000E+01 6.12809353581000E+01 
6.23108435150000E+01 6.33580606486000E+01 6.44228776593000E+01 6.55055903365000E+01 
6.66064994407000E+01 6.77259107871000E+01 6.88641353303000E+01 7.00214892513000E+01 
7.11982940446000E+01 7.23948766081000E+01 7.36115693335000E+01 7.48487101988000E+01 
7.61066428623000E+01 7.73857167576000E+01 7.86862871915000E+01 8.00087154417000E+01 
8.13533688581000E+01 8.27206209640000E+01 8.41108515605000E+01 8.55244468318000E+01 
8.69617994522000E+01 8.84233086956000E+01 8.99093805462000E+01 9.14204278113000E+01 
9.29568702360000E+01 9.45191346198000E+01 9.61076549348000E+01 9.77228724472000E+01 
9.93652358387000E+01 1.01035201332000E+02 1.02733232817000E+02 1.04459801980000E+02 
1.06215388435000E+02 1.08000479856000E+02 1.09815572113000E+02 1.11661169411000E+02 
1.13537784426000E+02 1.15445938453000E+02 1.17386161547000E+02 1.19358992672000E+02 
1.21364979848000E+02 1.23404680308000E+02 1.25478660647000E+02 1.27587496985000E+02 
1.29731775124000E+02 1.31912090709000E+02 1.34129049398000E+02 1.36383267027000E+02 
1.38675369783000E+02 1.41005994375000E+02 1.43375788214000E+02 1.45785409591000E+02 
1.48235527861000E+02 1.50726823628000E+02 1.53259988934000E+02 1.55835727454000E+02 
1.58454754687000E+02 1.61117798156000E+02 1.63825597614000E+02 1.66578905244000E+02 
1.69378485872000E+02 1.72225117176000E+02 1.75119589907000E+02 1.78062708103000E+02 
1.81055289316000E+02 1.84098164837000E+02 1.87192179930000E+02 1.90338194062000E+02 
1.93537081148000E+02 1.96789729786000E+02 2.00097043513000E+02 
</PP_R>
    <PP_RAB>
5.06601091975000E-07 5.15115197300000E-07 5.23772393493000E-07 5.32575085386000E-07 
5.41525718226000E-07 5.50626778359000E-07 5.59880793916000E-07 5.69290335515000E-07 
5.78858016980000E-07 5.88586496060000E-07 5.98478475173000E-07 6.08536702156000E-07 
6.18763971025000E-07 6.29163122753000E-07 6.39737046061000E-07 6.50488678217000E-07 
6.61421005856000E-07 6.72537065805000E-07 6.83839945930000E-07 6.95332785992000E-07 
7.07018778522000E-07 7.18901169703000E-07 7.30983260276000E-07 7.43268406455000E-07 
7.55760020860000E-07 7.68461573463000E-07 7.81376592556000E-07 7.94508665727000E-07 
8.07861440858000E-07 8.21438627139000E-07 8.35243996099000E-07 8.49281382650000E-07 
8.63554686158000E-07 8.78067871520000E-07 8.92824970270000E-07 9.07830081698000E-07 
9.23087373986000E-07 9.38601085368000E-07 9.54375525310000E-07 9.70415075701000E-07 
9.86724192075000E-07 1.00330740485000E-06 1.02016932057000E-06 1.03731462322000E-06 
1.05474807550000E-06 1.07247452013000E-06 1.09049888124000E-06 1.10882616573000E-06 
1.12746146461000E-06 1.14640995448000E-06 1.16567689893000E-06 1.18526765002000E-06 
1.20518764974000E-06 1.22544243156000E-06 1.24603762194000E-06 1.26697894188000E-06 
1.28827220857000E-06 1.30992333694000E-06 1.33193834132000E-06 1.35432333714000E-06 
1.37708454259000E-06 1.40022828039000E-06 1.42376097948000E-06 1.44768917689000E-06 
1.47201951950000E-06 1.49675876588000E-06 1.52191378820000E-06 1.54749157415000E-06 
1.57349922881000E-06 1.59994397672000E-06 1.62683316379000E-06 1.65417425942000E-06 
1.68197485854000E-06 1.71024268372000E-06 1.73898558730000E-06 1.76821155362000E-06 
1.79792870118000E-06 1.82814528494000E-06 1.85886969860000E-06 1.89011047689000E-06 
1.92187629804000E-06 1.95417598606000E-06 1.98701851332000E-06 2.02041300294000E-06 
2.05436873138000E-06 2.08889513101000E-06 2.12400179273000E-06 2.15969846860000E-06 
2.19599507460000E-06 2.23290169335000E-06 2.27042857692000E-06 2.30858614971000E-06 
2.34738501126000E-06 2.38683593931000E-06 2.42694989268000E-06 2.46773801441000E-06 
2.50921163478000E-06 2.55138227453000E-06 2.59426164798000E-06 2.63786166634000E-06 
2.68219444102000E-06 2.72727228695000E-06 2.77310772606000E-06 2.81971349070000E-06 
2.86710252722000E-06 2.91528799955000E-06 2.96428329284000E-06 3.01410201721000E-06 
3.06475801153000E-06 3.11626534723000E-06 3.16863833223000E-06 3.22189151491000E-06 
3.27603968818000E-06 3.33109789354000E-06 3.38708142529000E-06 3.44400583476000E-06 
3.50188693468000E-06 3.56074080348000E-06 3.62058378984000E-06 3.68143251720000E-06 
3.74330388838000E-06 3.80621509027000E-06 3.87018359859000E-06 3.93522718281000E-06 
4.00136391099000E-06 4.06861215487000E-06 4.13699059496000E-06 4.20651822570000E-06 
4.27721436078000E-06 4.34909863846000E-06 4.42219102706000E-06 4.49651183049000E-06 
4.57208169390000E-06 4.64892160940000E-06 4.72705292191000E-06 4.80649733507000E-06 
4.88727691728000E-06 4.96941410784000E-06 5.05293172316000E-06 5.13785296312000E-06 
5.22420141750000E-06 5.31200107252000E-06 5.40127631756000E-06 5.49205195186000E-06 
5.58435319146000E-06 5.67820567619000E-06 5.77363547679000E-06 5.87066910214000E-06 
5.96933350666000E-06 6.06965609776000E-06 6.17166474347000E-06 6.27538778018000E-06 
6.38085402052000E-06 6.48809276133000E-06 6.59713379185000E-06 6.70800740196000E-06 
6.82074439059000E-06 6.93537607430000E-06 7.05193429596000E-06 7.17045143360000E-06 
7.29096040941000E-06 7.41349469889000E-06 7.53808834011000E-06 7.66477594324000E-06 
7.79359270008000E-06 7.92457439389000E-06 8.05775740932000E-06 8.19317874252000E-06 
8.33087601138000E-06 8.47088746603000E-06 8.61325199945000E-06 8.75800915825000E-06 
8.90519915369000E-06 9.05486287282000E-06 9.20704188987000E-06 9.36177847775000E-06 
9.51911561985000E-06 9.67909702194000E-06 9.84176712433000E-06 1.00071711142000E-05 
1.01753549382000E-05 1.03463653151000E-05 1.05202497489000E-05 1.06970565419000E-05 
1.08768348083000E-05 1.10596344876000E-05 1.12455063588000E-05 1.14345020540000E-05 
1.16266740733000E-05 1.18220757991000E-05 1.20207615108000E-05 1.22227864003000E-05 
1.24282065868000E-05 1.26370791328000E-05 1.28494620598000E-05 1.30654143644000E-05 
1.32849960349000E-05 1.35082680674000E-05 1.37352924835000E-05 1.39661323470000E-05 
1.42008517814000E-05 1.44395159882000E-05 1.46821912645000E-05 1.49289450217000E-05 
1.51798458041000E-05 1.54349633078000E-05 1.56943684007000E-05 1.59581331412000E-05 
1.62263307992000E-05 1.64990358755000E-05 1.67763241235000E-05 1.70582725694000E-05 
1.73449595340000E-05 1.76364646545000E-05 1.79328689063000E-05 1.82342546259000E-05 
1.85407055335000E-05 1.88523067563000E-05 1.91691448522000E-05 1.94913078338000E-05 
1.98188851929000E-05 2.01519679254000E-05 2.04906485562000E-05 2.08350211657000E-05 
2.11851814150000E-05 2.15412265732000E-05 2.19032555439000E-05 2.22713688931000E-05 
2.26456688769000E-05 2.30262594698000E-05 2.34132463940000E-05 2.38067371484000E-05 
2.42068410383000E-05 2.46136692064000E-05 2.50273346631000E-05 2.54479523181000E-05 
2.58756390124000E-05 2.63105135506000E-05 2.67526967340000E-05 2.72023113940000E-05 
2.76594824266000E-05 2.81243368266000E-05 2.85970037232000E-05 2.90776144158000E-05 
2.95663024105000E-05 3.00632034571000E-05 3.05684555869000E-05 3.10821991509000E-05 
3.16045768589000E-05 3.21357338194000E-05 3.26758175791000E-05 3.32249781650000E-05 
3.37833681251000E-05 3.43511425714000E-05 3.49284592226000E-05 3.55154784482000E-05 
3.61123633128000E-05 3.67192796217000E-05 3.73363959665000E-05 3.79638837726000E-05 
3.86019173460000E-05 3.92506739225000E-05 3.99103337163000E-05 4.05810799705000E-05 
4.12630990080000E-05 4.19565802827000E-05 4.26617164328000E-05 4.33787033340000E-05 
4.41077401539000E-05 4.48490294076000E-05 4.56027770133000E-05 4.63691923503000E-05 
4.71484883167000E-05 4.79408813885000E-05 4.87465916802000E-05 4.95658430051000E-05 
5.03988629386000E-05 5.12458828802000E-05 5.21071381188000E-05 5.29828678975000E-05 
5.38733154802000E-05 5.47787282192000E-05 5.56993576238000E-05 5.66354594303000E-05 
5.75872936731000E-05 5.85551247566000E-05 5.95392215291000E-05 6.05398573570000E-05 
6.15573102013000E-05 6.25918626942000E-05 6.36438022182000E-05 6.47134209853000E-05 
6.58010161188000E-05 6.69068897354000E-05 6.80313490294000E-05 6.91747063578000E-05 
7.03372793273000E-05 7.15193908821000E-05 7.27213693943000E-05 7.39435487545000E-05 
7.51862684648000E-05 7.64498737331000E-05 7.77347155691000E-05 7.90411508814000E-05 
8.03695425772000E-05 8.17202596628000E-05 8.30936773459000E-05 8.44901771404000E-05 
8.59101469718000E-05 8.73539812853000E-05 8.88220811554000E-05 9.03148543969000E-05 
9.18327156787000E-05 9.33760866386000E-05 9.49453960008000E-05 9.65410796947000E-05 
9.81635809759000E-05 9.98133505497000E-05 1.01490846696000E-04 1.03196535397000E-04 
1.04930890465000E-04 1.06694393678000E-04 1.08487534909000E-04 1.10310812263000E-04 
1.12164732219000E-04 1.14049809767000E-04 1.15966568550000E-04 1.17915541015000E-04 
1.19897268555000E-04 1.21912301663000E-04 1.23961200082000E-04 1.26044532966000E-04 
1.28162879031000E-04 1.30316826719000E-04 1.32506974364000E-04 1.34733930353000E-04 
1.36998313301000E-04 1.39300752217000E-04 1.41641886681000E-04 1.44022367025000E-04 
1.46442854509000E-04 1.48904021504000E-04 1.51406551686000E-04 1.53951140216000E-04 
1.56538493942000E-04 1.59169331589000E-04 1.61844383963000E-04 1.64564394151000E-04 
1.67330117729000E-04 1.70142322971000E-04 1.73001791064000E-04 1.75909316322000E-04 
1.78865706410000E-04 1.81871782567000E-04 1.84928379832000E-04 1.88036347282000E-04 
1.91196548259000E-04 1.94409860617000E-04 1.97677176965000E-04 2.00999404911000E-04 
2.04377467317000E-04 2.07812302557000E-04 2.11304864772000E-04 2.14856124141000E-04 
2.18467067149000E-04 2.22138696858000E-04 2.25872033189000E-04 2.29668113204000E-04 
2.33527991394000E-04 2.37452739972000E-04 2.41443449171000E-04 2.45501227547000E-04 
2.49627202287000E-04 2.53822519522000E-04 2.58088344645000E-04 2.62425862634000E-04 
2.66836278383000E-04 2.71320817037000E-04 2.75880724329000E-04 2.80517266929000E-04 
2.85231732796000E-04 2.90025431534000E-04 2.94899694757000E-04 2.99855876458000E-04 
3.04895353386000E-04 3.10019525428000E-04 3.15229815998000E-04 3.20527672434000E-04 
3.25914566394000E-04 3.31391994275000E-04 3.36961477618000E-04 3.42624563538000E-04 
3.48382825152000E-04 3.54237862012000E-04 3.60191300556000E-04 3.66244794556000E-04 
3.72400025575000E-04 3.78658703441000E-04 3.85022566715000E-04 3.91493383177000E-04 
3.98072950319000E-04 4.04763095840000E-04 4.11565678157000E-04 4.18482586919000E-04 