<?xml version="1.0" encoding="UTF-8"?>
<UPF version="2.0.1">
  <PP_INFO><![CDATA[
Generated using "atomic" code by A. Dal Corso  v.6.3MaX
Author: ADC
Generation date: 27May2022
Pseudopotential type: PAW
Element: Lu
Functional:  SLA  PW   PBX  PBC
    Suggested minimum cutoff for wavefunctions:  42. Ry
    Suggested minimum cutoff for charge density: 333. Ry
    The Pseudo was generated with a Scalar-Relativistic Calculation
    Local Potential by smoothing AE potential with Bessel fncs, cutoff radius:   1.8000
    Pseudopotential contains additional information for GIPAW reconstruction.
    Valence configuration:
    nl pn  l   occ       Rcut    Rcut US       E pseu
    5S  1  0  2.00      1.100      1.400    -4.542535
    6S  2  0  1.50      1.100      1.400    -0.374822
    5P  2  1  6.00      1.100      1.500    -2.381578
    6P  3  1  0.50      1.100      1.500    -0.123325
    5D  3  2  1.00      1.100      2.000    -0.169799
    Generation configuration:
    5S  1  0  2.00      1.100      1.400    -4.542589
    6S  2  0  1.50      1.100      1.400    -0.374828
    5P  2  1  6.00      1.100      1.500    -2.381614
    6P  3  1  0.50      1.100      1.500    -0.123326
    5D  3  2  1.00      1.100      2.000    -0.169811
    5D  3  2  0.00      1.100      2.000     2.000000
    Pseudization used: troullier-martins
]]>
    <PP_INPUTFILE><![CDATA[
 &input
   title='Lu',
   zed=71.0,
   rel=1,
   config='[Xe] 4f14.0 5d1.0 6s1.5 6p0.5',
   iswitch=3,
   dft='PBE'
 /
 &inputp
   lpaw=.true.,
   pseudotype=3,
   file_pseudopw='Lu.pbe-spdn-kjpaw_psl.1.0.0.UPF',
   author='ADC',
   lloc=-1,
   rcloc=1.8,
   which_augfun='PSQ',
   rmatch_augfun_nc=.true.,
   nlcc=.true.,
   new_core_ps=.true.,
   rcore=1.1,
   tm=.true.
 /
6
5S  1  0  2.00  0.00  1.10  1.40  0.0
6S  2  0  1.50  0.00  1.10  1.40  0.0
5P  2  1  6.00  0.00  1.10  1.50  0.0
6P  3  1  0.50  0.00  1.10  1.50  0.0
5D  3  2  1.00  0.00  1.10  2.00  0.0
5D  3  2  0.00  2.00  1.10  2.00  0.0
]]></PP_INPUTFILE>
  </PP_INFO>
  <!--
 END OF HUMAN READABLE SECTION 
-->
  <PP_HEADER generated="Generated using &quot;atomic&quot; code by A. Dal Corso  v.6.3MaX" author="ADC" date="27May2022" comment="" element="Lu" pseudo_type="PAW" relativistic="scalar" is_ultrasoft="true" is_paw="true" is_coulomb="false" has_so="false" has_wfc="true" has_gipaw="true" paw_as_gipaw="true" core_correction="true" functional=" SLA  PW   PBX  PBC" z_valence="1.100000000000e1" total_psenergy="-6.669821238101e2" wfc_cutoff="4.191324362968e1" rho_cutoff="3.332090905478e2" l_max="2" l_max_rho="4" l_local="-1" mesh_size="1271" number_of_wfc="5" number_of_proj="6"/>
  <PP_MESH dx="1.250000000000e-2" mesh="1271" xmin="-7.000000000000e0" rmax="1.000000000000e2" zmesh="7.100000000000e1">
    <PP_R>
      1.284340796555657e-5 1.300495815026792e-5 1.316854038614905e-5 1.333418023325710e-5
      1.350190357315521e-5 1.367173661295646e-5 1.384370588941886e-5 1.401783827309171e-5
      1.419416097251423e-5 1.437270153846697e-5 1.455348786827658e-5 1.473654821017491e-5
      1.492191116771282e-5 1.510960570422953e-5 1.529966114737828e-5 1.549210719370871e-5
      1.568697391330709e-5 1.588429175449482e-5 1.608409154858602e-5 1.628640451470504e-5
      1.649126226466443e-5 1.669869680790441e-5 1.690874055649438e-5 1.712142633019739e-5
      1.733678736159833e-5 1.755485730129647e-5 1.777567022316359e-5 1.799926062966795e-5
      1.822566345726546e-5 1.845491408185859e-5 1.868704832432382e-5 1.892210245610883e-5
      1.916011320489991e-5 1.940111776036080e-5 1.964515377994365e-5 1.989225939477298e-5
      2.014247321560386e-5 2.039583433885487e-5 2.065238235271694e-5 2.091215734333925e-5
      2.117519990109257e-5 2.144155112691171e-5 2.171125263871761e-5 2.198434657792017e-5
      2.226087561600306e-5 2.254088296119105e-5 2.282441236520150e-5 2.311150813008064e-5
      2.340221511512583e-5 2.369657874389495e-5 2.399464501130386e-5 2.429646049081327e-5
      2.460207234170591e-5 2.491152831645522e-5 2.522487676818690e-5 2.554216665823402e-5
      2.586344756378742e-5 2.618876968564227e-5 2.651818385604194e-5 2.685174154662080e-5
      2.718949487644661e-5 2.753149662016432e-5 2.787780021624220e-5 2.822845977532167e-5
      2.858353008867231e-5 2.894306663675295e-5 2.930712559788069e-5 2.967576385700893e-5
      3.004903901461561e-5 3.042700939570358e-5 3.080973405891387e-5 3.119727280575375e-5
      3.158968618994090e-5 3.198703552686490e-5 3.238938290316812e-5 3.279679118644668e-5
      3.320932403507371e-5 3.362704590814610e-5 3.405002207555638e-5 3.447831862819131e-5
      3.491200248825857e-5 3.535114141974363e-5 3.579580403899801e-5 3.624605982546056e-5
      3.670197913251406e-5 3.716363319847777e-5 3.763109415773874e-5 3.810443505202290e-5
      3.858372984180801e-5 3.906905341788011e-5 3.956048161303538e-5 4.005809121392912e-5
      4.056195997307385e-5 4.107216662098828e-5 4.158879087849925e-5 4.211191346919803e-5
      4.264161613205374e-5 4.317798163418512e-5 4.372109378379307e-5 4.427103744325606e-5
      4.482789854238968e-5 4.539176409187361e-5 4.596272219684716e-5 4.654086207067580e-5
      4.712627404889115e-5 4.771904960330581e-5 4.831928135630611e-5 4.892706309532469e-5
      4.954248978749477e-5 5.016565759448914e-5 5.079666388754550e-5 5.143560726268089e-5
      5.208258755609762e-5 5.273770585978283e-5 5.340106453730433e-5 5.407276723980513e-5
      5.475291892219901e-5 5.544162585957019e-5 5.613899566377873e-5 5.684513730027547e-5
      5.756016110512769e-5 5.828417880225968e-5 5.901730352090956e-5 5.975964981330620e-5
      6.051133367256815e-5 6.127247255082774e-5 6.204318537758319e-5 6.282359257828172e-5
      6.361381609313614e-5 6.441397939617849e-5 6.522420751455275e-5 6.604462704805086e-5
      6.687536618889406e-5 6.771655474176317e-5 6.856832414408118e-5 6.943080748655004e-5
      7.030413953394671e-5 7.118845674618049e-5 7.208389729961482e-5 7.299060110865810e-5
      7.390870984762515e-5 7.483836697287432e-5 7.577971774522284e-5 7.673290925264402e-5
      7.769809043325029e-5 7.867541209856478e-5 7.966502695708602e-5 8.066708963814907e-5
      8.168175671608651e-5 8.270918673469369e-5 8.374954023200132e-5 8.480297976535997e-5
      8.586966993683998e-5 8.694977741895073e-5 8.804347098068398e-5 8.915092151388375e-5
      9.027230205994906e-5 9.140778783687164e-5 9.255755626661427e-5 9.372178700283342e-5
      9.490066195895025e-5 9.609436533657503e-5 9.730308365428918e-5 9.852700577678890e-5
      9.976632294439613e-5 1.010212288029394e-4 1.022919194340126e-4 1.035785933856118e-4
      1.048814517031597e-4 1.062006979609194e-4 1.075365382938023e-4 1.088891814295784e-4
      1.102588387214898e-4 1.116457241812745e-4 1.130500545126079e-4 1.144720491449607e-4
      1.159119302678878e-4 1.173699228657438e-4 1.188462547528385e-4 1.203411566090331e-4
      1.218548620157836e-4 1.233876074926398e-4 1.249396325342008e-4 1.265111796475368e-4
      1.281024943900820e-4 1.297138254080020e-4 1.313454244750468e-4 1.329975465318903e-4
      1.346704497259649e-4 1.363643954517985e-4 1.380796483918567e-4 1.398164765579016e-4
      1.415751513328674e-4 1.433559475132657e-4 1.451591433521232e-4 1.469850206024578e-4
      1.488338645613050e-4 1.507059641142948e-4 1.526016117807909e-4 1.545211037595984e-4
      1.564647399752438e-4 1.584328241248403e-4 1.604256637255405e-4 1.624435701625862e-4
      1.644868587379642e-4 1.665558487196707e-4 1.686508633916003e-4 1.707722301040578e-4
      1.729202803249075e-4 1.750953496913675e-4 1.772977780624507e-4 1.795279095720714e-4
      1.817860926828152e-4 1.840726802403870e-4 1.863880295287457e-4 1.887325023259272e-4
      1.911064649605765e-4 1.935102883691851e-4 1.959443481540510e-4 1.984090246419681e-4
      2.009047029436515e-4 2.034317730139138e-4 2.059906297125947e-4 2.085816728662591e-4
      2.112053073306721e-4 2.138619430540555e-4 2.165519951411469e-4 2.192758839180576e-4
      2.220340349979505e-4 2.248268793475440e-4 2.276548533544489e-4 2.305183988953581e-4
      2.334179634050881e-4 2.363539999464924e-4 2.393269672812547e-4 2.423373299415688e-4
      2.453855583027256e-4 2.484721286566080e-4 2.515975232861132e-4 2.547622305405115e-4
      2.579667449117490e-4 2.612115671117166e-4 2.644972041504846e-4 2.678241694155248e-4
      2.711929827519286e-4 2.746041705436337e-4 2.780582657956731e-4 2.815558082174568e-4
      2.850973443071041e-4 2.886834274368346e-4 2.923146179394331e-4 2.959914831958033e-4
      2.997145977236222e-4 3.034845432671094e-4 3.073019088879264e-4 3.111672910572175e-4
      3.150812937488113e-4 3.190445285335911e-4 3.230576146750553e-4 3.271211792260785e-4
      3.312358571268889e-4 3.354022913042800e-4 3.396211327720686e-4 3.438930407328173e-4
      3.482186826808365e-4 3.525987345064810e-4 3.570338806017598e-4 3.615248139672738e-4
      3.660722363204978e-4 3.706768582054270e-4 3.753393991035984e-4 3.800605875465139e-4
      3.848411612294728e-4 3.896818671268392e-4 3.945834616087580e-4 3.995467105593394e-4
      4.045723894963301e-4 4.096612836922883e-4 4.148141882972856e-4 4.200319084631508e-4
      4.253152594692747e-4 4.306650668500014e-4 4.360821665236182e-4 4.415674049229702e-4
      4.471216391277177e-4 4.527457369982545e-4 4.584405773113160e-4 4.642070498972868e-4
      4.700460557792406e-4 4.759585073137261e-4 4.819453283333244e-4 4.880074542910004e-4
      4.941458324062681e-4 5.003614218131967e-4 5.066551937102770e-4 5.130281315121723e-4
      5.194812310033806e-4 5.260155004938256e-4 5.326319609764097e-4 5.393316462865446e-4
      5.461156032636904e-4 5.529848919149270e-4 5.599405855805819e-4 5.669837711019415e-4
      5.741155489910735e-4 5.813370336027823e-4 5.886493533087313e-4 5.960536506737509e-4
      6.035510826343689e-4 6.111428206795827e-4 6.188300510339074e-4 6.266139748427256e-4
      6.344958083599693e-4 6.424767831381606e-4 6.505581462208467e-4 6.587411603374504e-4
      6.670271041005766e-4 6.754172722057955e-4 6.839129756339434e-4 6.925155418559660e-4
      7.012263150403372e-4 7.100466562630898e-4 7.189779437204847e-4 7.280215729443579e-4
      7.371789570201743e-4 7.464515268078281e-4 7.558407311652132e-4 7.653480371746125e-4
      7.749749303719334e-4 7.847229149788224e-4 7.945935141377092e-4 8.045882701497929e-4
      8.147087447160349e-4 8.249565191811769e-4 8.353331947808272e-4 8.458403928916612e-4
      8.564797552847601e-4 8.672529443821443e-4 8.781616435165276e-4 8.892075571943433e-4
      9.003924113620785e-4 9.117179536759515e-4 9.231859537749910e-4 9.347982035575443e-4
      9.465565174612641e-4 9.584627327466224e-4 9.705187097839801e-4 9.827263323442770e-4
      9.950875078933750e-4 1.007604167890102e-3 1.020278268088049e-3 1.033111788841157e-3
      1.046106735413153e-3 1.059265138290879e-3 1.072589053501554e-3 1.086080562934038e-3
      1.099741774664129e-3 1.113574823283953e-3 1.127581870235501e-3 1.141765104148355e-3
      1.156126741181673e-3 1.170669025370459e-3 1.185394228976203e-3 1.200304652841928e-3
      1.215402626751697e-3 1.230690509794653e-3 1.246170690733624e-3 1.261845588378376e-3
      1.277717651963557e-3 1.293789361531393e-3 1.310063228319204e-3 1.326541795151784e-3
      1.343227636838727e-3 1.360123360576745e-3 1.377231606357043e-3 1.394555047377835e-3
      1.412096390462025e-3 1.429858376480156e-3 1.447843780778682e-3 1.466055413613615e-3
      1.484496120589638e-3 1.503168783104736e-3 1.522076318800413e-3 1.541221682017591e-3
      1.560607864258225e-3 1.580237894652728e-3 1.600114840433292e-3 1.620241807413133e-3
      1.640621940471789e-3 1.661258424046515e-3 1.682154482629854e-3 1.703313381273475e-3
      1.724738426098338e-3 1.746432964811286e-3 1.768400387228131e-3 1.790644125803318e-3
      1.813167656166257e-3 1.835974497664390e-3 1.859068213913102e-3 1.882452413352542e-3
      1.906130749811447e-3 1.930106923078063e-3 1.954384679478244e-3 1.978967812460819e-3
      2.003860163190333e-3 2.029065621147229e-3 2.054588124735597e-3 2.080431661898547e-3
      2.106600270741339e-3 2.133098040162348e-3 2.159929110491951e-3 2.187097674139479e-3
      2.214607976248277e-3 2.242464315359019e-3 2.270671044081365e-3 2.299232569774063e-3
      2.328153355233614e-3 2.357437919391586e-3 2.387090838020707e-3 2.417116744449843e-3
      2.447520330287960e-3 2.478306346157205e-3 2.509479602435190e-3 2.541044970006632e-3
      2.573007381024433e-3 2.605371829680342e-3 2.638143372985311e-3 2.671327131559653e-3
      2.704928290433158e-3 2.738952099855263e-3 2.773403876115410e-3 2.808289002373735e-3
      2.843612929502189e-3 2.879381176936255e-3 2.915599333537363e-3 2.952273058466166e-3
      2.989408082066804e-3 3.027010206762263e-3 3.065085307961029e-3 3.103639334975127e-3
      3.142678311949716e-3 3.182208338804378e-3 3.222235592186232e-3 3.262766326435055e-3
      3.303806874560533e-3 3.345363649231805e-3 3.387443143779467e-3 3.430051933210152e-3
      3.473196675233896e-3 3.516884111304419e-3 3.561121067672485e-3 3.605914456452536e-3
      3.651271276702699e-3 3.697198615518414e-3 3.743703649139813e-3 3.790793644073012e-3
      3.838475958225530e-3 3.886758042055961e-3 3.935647439738133e-3 3.985151790339902e-3
      4.035278829016762e-3 4.086036388220498e-3 4.137432398922999e-3 4.189474891855504e-3
      4.242171998763412e-3 4.295531953676891e-3 4.349563094197464e-3 4.404273862800759e-3
      4.459672808155682e-3 4.515768586460154e-3 4.572569962793659e-3 4.630085812486819e-3
      4.688325122508164e-3 4.747296992868373e-3 4.807010638042168e-3 4.867475388408092e-3
      4.928700691706415e-3 4.990696114515336e-3 5.053471343745799e-3 5.117036188155090e-3
      5.181400579879469e-3 5.246574575986100e-3 5.312568360044466e-3 5.379392243717593e-3
      5.447056668373262e-3 5.515572206715479e-3 5.584949564436521e-3 5.655199581889674e-3
      5.726333235783089e-3 5.798361640894912e-3 5.871296051809978e-3 5.945147864678388e-3
      6.019928618996152e-3 6.095649999408275e-3 6.172323837534501e-3 6.249962113818026e-3
      6.328576959397489e-3 6.408180658002447e-3 6.488785647872763e-3 6.570404523702095e-3
      6.653050038605840e-3 6.736735106113861e-3 6.821472802188206e-3 6.907276367266286e-3
      6.994159208329716e-3 7.082134900999169e-3 7.171217191655623e-3 7.261419999588230e-3
      7.352757419169245e-3 7.445243722056306e-3 7.538893359422398e-3 7.633720964213905e-3
      7.729741353436994e-3 7.826969530472841e-3 7.925420687421916e-3 8.025110207477788e-3
      8.126053667330799e-3 8.228266839601915e-3 8.331765695307260e-3 8.436566406353602e-3
      8.542685348065259e-3 8.650139101742788e-3 8.758944457253808e-3 8.869118415656484e-3
      8.980678191855969e-3 9.093641217294255e-3 9.208025142673907e-3 9.323847840715976e-3
      9.441127408952671e-3 9.559882172555140e-3 9.680130687196794e-3 9.801891741952707e-3
      9.925184362235404e-3 1.005002781276765e-2 1.017644160059257e-2 1.030444547812172e-2
      1.043405944622138e-2 1.056530375733778e-2 1.069819891866153e-2 1.083276569533199e-2
      1.096902511368176e-2 1.110699846452221e-2 1.124670730647010e-2 1.138817346931624e-2
      1.153141905743637e-2 1.167646645324508e-2 1.182333832069306e-2 1.197205760880843e-2
      1.212264755528251e-2 1.227513169010082e-2 1.242953383921966e-2 1.258587812828895e-2
      1.274418898642197e-2 1.290449115001237e-2 1.306680966659935e-2 1.323116989878135e-2
      1.339759752817907e-2 1.356611855944820e-2 1.373675932434272e-2 1.390954648582932e-2
      1.408450704225352e-2 1.426166833155823e-2 1.444105803555534e-2 1.462270418425106e-2
      1.480663516022570e-2 1.499287970306844e-2 1.518146691386805e-2 1.537242625975989e-2
      1.556578757853026e-2 1.576158108327861e-2 1.595983736713840e-2 1.616058740805736e-2
      1.636386257363780e-2 1.656969462603791e-2 1.677811572693463e-2 1.698915844254902e-2
      1.720285574873479e-2 1.741924103613078e-2 1.763834811537838e-2 1.786021122240451e-2
      1.808486502377100e-2 1.831234462209143e-2 1.854268556151580e-2 1.877592383328455e-2
      1.901209588135217e-2 1.925123860808164e-2 1.949338938001058e-2 1.973858603368977e-2
      1.998686688159518e-2 2.023827071811444e-2 2.049283682560847e-2 2.075060498054952e-2
      2.101161545973621e-2 2.127590904658695e-2 2.154352703751239e-2 2.181451124836807e-2
      2.208890402098830e-2 2.236674822980203e-2 2.264808728853216e-2 2.293296515697903e-2
      2.322142634788913e-2 2.351351593391046e-2 2.380927955463510e-2 2.410876342373050e-2
      2.441201433616051e-2 2.471907967549716e-2 2.503000742132449e-2 2.534484615673534e-2
      2.566364507592267e-2 2.598645399186621e-2 2.631332334411581e-2 2.664430420667282e-2
      2.697944829597038e-2 2.731880797895430e-2 2.766243628126547e-2 2.801038689552524e-2
      2.836271418972503e-2 2.871947321572135e-2 2.908071971783786e-2 2.944651014157545e-2
      2.981690164243203e-2 3.019195209483323e-2 3.057172010117525e-2 3.095626500098173e-2
      3.134564688017563e-2 3.173992658046773e-2 3.213916570886344e-2 3.254342664728880e-2
      3.295277256233792e-2 3.336726741514284e-2 3.378697597136759e-2 3.421196381132801e-2
      3.464229734023874e-2 3.507804379858919e-2 3.551927127265000e-2 3.596604870511164e-2
      3.641844590585700e-2 3.687653356286904e-2 3.734038325327616e-2 3.781006745453623e-2
      3.828565955576120e-2 3.876723386918462e-2 3.925486564177256e-2 3.974863106698168e-2
      4.024860729666430e-2 4.075487245312340e-2 4.126750564131979e-2 4.178658696123195e-2
      4.231219752037228e-2 4.284441944646008e-2 4.338333590025395e-2 4.392903108854641e-2
      4.448159027732069e-2 4.504109980507429e-2 4.560764709630934e-2 4.618132067519259e-2
      4.676221017938804e-2 4.735040637406240e-2 4.794600116606786e-2 4.854908761830250e-2
      4.915975996425129e-2 4.977811362271090e-2 5.040424521269832e-2 5.103825256854845e-2
      5.168023475520066e-2 5.233029208367752e-2 5.298852612675936e-2 5.365503973485440e-2
      5.432993705207005e-2 5.501332353248528e-2 5.570530595662785e-2 5.640599244815957e-2
      5.711549249077009e-2 5.783391694528466e-2 5.856137806698607e-2 5.929798952315436e-2
      6.004386641082848e-2 6.079912527478935e-2 6.156388412577122e-2 6.233826245890053e-2
      6.312238127236711e-2 6.391636308633108e-2 6.472033196206606e-2 6.553441352134463e-2
      6.635873496606682e-2 6.719342509813525e-2 6.803861433958146e-2 6.889443475294375e-2
      6.976102006190300e-2 7.063850567217695e-2 7.152702869267720e-2 7.242672795693368e-2
      7.333774404478664e-2 7.426021930435338e-2 7.519429787427013e-2 7.614012570621362e-2
      7.709785058770712e-2 7.806762216521161e-2 7.904959196750923e-2 8.004391342937955e-2
      8.105074191557367e-2 8.207023474509125e-2 8.310255121576082e-2 8.414785262913130e-2
      8.520630231567537e-2 8.627806566030966e-2 8.736331012823763e-2 8.846220529111502e-2
      8.957492285354689e-2 9.070163667991638e-2 9.184252282155088e-2 9.299775954423147e-2
      9.416752735604607e-2 9.535200903559540e-2 9.655138966055187e-2 9.776585663657798e-2
      9.899559972660988e-2 1.002408110805070e-1 1.015016852650770e-1 1.027784192944766e-1
      1.040712126609951e-1 1.053802673662266e-1 1.067057879526317e-1 1.080479815354990e-1
      1.094070578353067e-1 1.107832292104914e-1 1.121767106906307e-1 1.135877200100405e-1
      1.150164776417978e-1 1.164632068321898e-1 1.179281336355953e-1 1.194114869498082e-1
      1.209134985518014e-1 1.224344031339437e-1 1.239744383406706e-1 1.255338448056160e-1
      1.271128661892131e-1 1.287117492167652e-1 1.303307437169984e-1 1.319701026610977e-1
      1.336300822022328e-1 1.353109417155847e-1 1.370129438388717e-1 1.387363545133884e-1
      1.404814430255595e-1 1.422484820490148e-1 1.440377476871973e-1 1.458495195165027e-1
      1.476840806299658e-1 1.495417176814931e-1 1.514227209306529e-1 1.533273842880303e-1
      1.552560053611494e-1 1.572088855009770e-1 1.591863298490083e-1 1.611886473849454e-1
      1.632161509749775e-1 1.652691574206650e-1 1.673479875084422e-1 1.694529660597400e-1
      1.715844219817391e-1 1.737426883187643e-1 1.759281023043213e-1 1.781410054137918e-1
      1.803817434177893e-1 1.826506664361850e-1 1.849481289928173e-1 1.872744900708843e-1
      1.896301131690382e-1 1.920153663581798e-1 1.944306223389732e-1 1.968762585000795e-1
      1.993526569771241e-1 2.018602047124078e-1 2.043992935153652e-1 2.069703201237879e-1
      2.095736862658148e-1 2.122097987227013e-1 2.148790693923828e-1 2.175819153538314e-1
      2.203187589322278e-1 2.230900277649497e-1 2.258961548683898e-1 2.287375787056178e-1
      2.316147432548882e-1 2.345280980790161e-1 2.374780983956204e-1 2.404652051482516e-1
      2.434898850784178e-1 2.465526107985111e-1 2.496538608656569e-1 2.527941198564881e-1
      2.559738784428601e-1 2.591936334685221e-1 2.624538880267467e-1 2.657551515389420e-1
      2.690979398342488e-1 2.724827752301382e-1 2.759101866140284e-1 2.793807095259202e-1
      2.828948862420798e-1 2.864532658597694e-1 2.900564043830427e-1 2.937048648096258e-1
      2.973992172188821e-1 3.011400388608921e-1 3.049279142466490e-1 3.087634352393869e-1
      3.126472011470657e-1 3.165798188160088e-1 3.205619027257286e-1 3.245940750849380e-1
      3.286769659287707e-1 3.328112132172288e-1 3.369974629348613e-1 3.412363691917039e-1
      3.455285943254842e-1 3.498748090051105e-1 3.542756923354704e-1 3.587319319635365e-1
      3.632442241858178e-1 3.678132740571548e-1 3.724397955008845e-1 3.771245114203965e-1
      3.818681538120832e-1 3.866714638797197e-1 3.915351921502773e-1 3.964600985911923e-1
      4.014469527291172e-1 4.064965337701555e-1 4.116096307216189e-1 4.167870425153096e-1
      4.220295781323525e-1 4.273380567296051e-1 4.327133077676470e-1 4.381561711403895e-1
      4.436674973063094e-1 4.492481474213310e-1 4.548989934733905e-1 4.606209184186785e-1
      4.664148163196100e-1 4.722815924845206e-1 4.782221636091204e-1 4.842374579197356e-1
      4.903284153183387e-1 4.964959875294160e-1 5.027411382486749e-1 5.090648432936188e-1
      5.154680907560287e-1 5.219518811563464e-1 5.285172276000141e-1 5.351651559357719e-1
      5.418967049159455e-1 5.487129263587609e-1 5.556148853126839e-1 5.626036602228441e-1
      5.696803430995413e-1 5.768460396888705e-1 5.841018696455045e-1 5.914489667076339e-1
      5.988884788741236e-1 6.064215685838867e-1 6.140494128975142e-1 6.217732036812013e-1
      6.295941477929698e-1 6.375134672712503e-1 6.455323995258242e-1 6.536521975311686e-1
      6.618741300222444e-1 6.701994816927282e-1 6.786295533957579e-1 6.871656623471896e-1
      6.958091423314111e-1 7.045613439097579e-1 7.134236346315305e-1 7.223973992476860e-1
      7.314840399272041e-1 7.406849764761754e-1 7.500016465596576e-1 7.594355059263037e-1
      7.689880286358343e-1 7.786607072893590e-1 7.884550532625937e-1 7.983725969420263e-1
      8.084148879640315e-1 8.185834954570140e-1 8.288800082865839e-1 8.393060353038168e-1
      8.498632055966487e-1 8.605531687444136e-1 8.713775950756039e-1 8.823381759288580e-1
      8.934366239172302e-1 9.046746731958020e-1 9.160540797326339e-1 9.275766215831506e-1
      9.392440991679607e-1 9.510583355541710e-1 9.630211767402567e-1 9.751344919444879e-1
      9.874001738970120e-1 9.998201391355906e-1 1.012396328305057e0 1.025130706460560e0
      1.038025263374589e0 1.051082013847900e0 1.064302998024319e0 1.077690281709520e0
      1.091245956693816e0 1.104972141079002e0 1.118870979609315e0 1.132944644006554e0
      1.147195333309410e0 1.161625274217086e0 1.176236721437201e0 1.191031958038113e0
      1.206013295805643e0 1.221183075604294e0 1.236543667743027e0 1.252097472345610e0
      1.267846919725659e0 1.283794470766372e0 1.299942617305041e0 1.316293882522419e0
      1.332850821336960e0 1.349616020804040e0 1.366592100520189e0 1.383781713032395e0
      1.401187544252591e0 1.418812313877312e0 1.436658775812672e0 1.454729718604660e0
      1.473027965874848e0 1.491556376761606e0 1.510317846366825e0 1.529315306208304e0
      1.548551724677797e0 1.568030107504822e0 1.587753498226329e0 1.607724978662240e0
      1.627947669397009e0 1.648424730267210e0 1.669159360855258e0 1.690154800989374e0
      1.711414331249788e0 1.732941273481360e0 1.754738991312612e0 1.776810890681298e0
      1.799160420366606e0 1.821791072528014e0 1.844706383250966e0 1.867909933099390e0
      1.891405347675148e0 1.915196298184579e0 1.939286502012095e0 1.963679723301059e0
      1.988379773541929e0 2.013390512167803e0 2.038715847157481e0 2.064359735646073e0
      2.090326184543332e0 2.116619251159732e0 2.143243043840417e0 2.170201722607168e0
      2.197499499808382e0 2.225140640777288e0 2.253129464498404e0 2.281470344282371e0
      2.310167708449324e0 2.339226041020790e0 2.368649882420359e0 2.398443830183115e0
      2.428612539674005e0 2.459160724815274e0 2.490093158822992e0 2.521414674952911e0
      2.553130167255653e0 2.585244591341408e0 2.617762965154286e0 2.650690369756345e0
      2.684031950121549e0 2.717792915939671e0 2.751978542430295e0 2.786594171167123e0
      2.821645210912561e0 2.857137138462886e0 2.893075499503991e0 2.929465909477896e0
      2.966314054460208e0 3.003625692048536e0 3.041406652262170e0 3.079662838453017e0
      3.118400228227988e0 3.157624874383060e0 3.197342905848987e0 3.237560528648998e0
      3.278284026868483e0 3.319519763636882e0 3.361274182121970e0 3.403553806536574e0
      3.446365243158033e0 3.489715181360427e0 3.533610394659783e0 3.578057741772497e0
      3.623064167686971e0 3.668636704748828e0 3.714782473759708e0 3.761508685089889e0
      3.808822639804972e0 3.856731730806628e0 3.905243443987803e0 3.954365359402388e0
      4.004105152449591e0 4.054470595073287e0 4.105469556976341e0 4.157110006850314e0
      4.209400013620572e0 4.262347747707040e0 4.315961482300910e0 4.370249594657273e0
      4.425220567404144e0 4.480882989867860e0 4.537245559415163e0 4.594317082812230e0
      4.652106477600689e0 4.710622773491057e0 4.769875113773628e0 4.829872756747104e0
      4.890625077165283e0 4.952141567701814e0 5.014431840433509e0 5.077505628342221e0
      5.141372786835618e0 5.206043295287173e0 5.271527258595382e0 5.337834908762754e0
      5.404976606494539e0 5.472962842817589e0 5.541804240719668e0 5.611511556809239e0
      5.682095682996269e0 5.753567648194092e0 5.825938620042659e0 5.899219906653582e0
      5.973422958376966e0 6.048559369590619e0 6.124640880511671e0 6.201679379030971e0
      6.279686902570670e0 6.358675639965007e0 6.438657933364915e0 6.519646280166473e0
      6.601653334963620e0 6.684691911525534e0 6.768774984798723e0 6.853915692934468e0
      6.940127339341645e0 7.027423394765381e0 7.115817499391965e0 7.205323464980060e0
      7.295955277018901e0 7.387727096913527e0 7.480653264197481e0 7.574748298773485e0
      7.670026903182105e0 7.766503964899138e0 7.864194558661775e0 7.963113948824017e0
      8.063277591741857e0 8.164701138188260e0 8.267400435798717e0 8.371391531547440e0
      8.476690674254680e0 8.583314317125748e0 8.691279120321742e0 8.800601953562829e0
      8.911299898764142e0 9.023390252704800e0 9.136890529730691e0 9.251818464490983e0
      9.368192014709321e0 9.486029363989710e0 9.605348924657683e0 9.726169340637385e0
      9.848509490364588e0 9.972388489736611e0 1.009782569509915e1 1.022484070627072e1
      1.035345336960527e1 1.048368378109306e1 1.061555228950086e1 1.074907949955143e1
      1.088428627514296e1 1.102119374260925e1 1.115982329402059e1 1.130019659052647e1
      1.144233556574006e1 1.158626242916539e1 1.173199966966773e1 1.187957005898737e1
      1.202899665529791e1 1.218030280680904e1 1.233351215541473e1 1.248864864038745e1
      1.264573650211857e1 1.280480028590609e1 1.296586484578987e1 1.312895534843505e1
      1.329409727706450e1 1.346131643544053e1 1.363063895189685e1 1.380209128342119e1
      1.397570021978910e1 1.415149288775017e1 1.432949675526636e1 1.450973963580414e1
      1.469224969268034e1 1.487705544346261e1 1.506418576442555e1 1.525366989506248e1
      1.544553744265435e1 1.563981838689585e1 1.583654308457973e1 1.603574227434030e1
      1.623744708145618e1 1.644168902271388e1 1.664850001133228e1 1.685791236194907e1
      1.706995879567012e1 1.728467244518207e1 1.750208685992952e1 1.772223601135714e1
      1.794515429821766e1 1.817087655194702e1 1.839943804210652e1 1.863087448189405e1
      1.886522203372421e1 1.910251731487871e1 1.934279740322806e1 1.958609984302486e1
      1.983246265077036e1 2.008192432115454e1 2.033452383307085e1 2.059030065570703e1
      2.084929475471192e1 2.111154659844045e1 2.137709716427680e1 2.164598794503708e1
      2.191826095545290e1 2.219395873873603e1 2.247312437322605e1 2.275580147912134e1
      2.304203422529475e1 2.333186733619529e1 2.362534609883611e1 2.392251636987102e1
      2.422342458275950e1 2.452811775502193e1 2.483664349558647e1 2.514905001222770e1
      2.546538611909948e1 2.578570124436215e1 2.611004543790561e1 2.643846937917010e1
      2.677102438506452e1 2.710776241798517e1 2.744873609393486e1 2.779399869074406e1
      2.814360415639607e1 2.849760711745608e1 2.885606288760702e1 2.921902747629230e1
      2.958655759746729e1 2.995871067846125e1 3.033554486895014e1 3.071711905004295e1
      3.110349284348184e1 3.149472662095802e1 3.189088151354531e1 3.229201942125153e1
      3.269820302269094e1 3.310949578487772e1 3.352596197314262e1 3.394766666117498e1
      3.437467574119015e1 3.480705593422571e1 3.524487480056655e1 3.568820075030119e1
      3.613710305401131e1 3.659165185359508e1 3.705191817322727e1 3.751797393045679e1
      3.798989194744380e1 3.846774596233871e1 3.895161064080338e1 3.944156158767836e1
      3.993767535879596e1 4.044002947294214e1 4.094870242396941e1 4.146377369306113e1
      4.198532376115110e1 4.251343412149864e1 4.304818729242182e1 4.358966683019175e1
      4.413795734208768e1 4.469314449961769e1 4.525531505190475e1 4.582455683924124e1
      4.640095880681473e1 4.698461101860519e1 4.757560467145824e1 4.817403210933461e1
      4.877998683773880e1 4.939356353833014e1 5.001485808371623e1 5.064396755243393e1
      5.128099024411773e1 5.192602569485906e1 5.257917469275965e1 5.324053929367904e1
      5.391022283718178e1 5.458832996268413e1 5.527496662580387e1 5.597024011491680e1