<?xml version="1.0" encoding="UTF-8"?>
<UPF version="2.0.1">
  <PP_INFO><![CDATA[
Generated using "atomic" code by A. Dal Corso  v.6.3MaX
Author: ADC
Generation date: 27May2022
Pseudopotential type: PAW
Element: Yb
Functional:  SLA  PW   PBX  PBC
    Suggested minimum cutoff for wavefunctions:  39. Ry
    Suggested minimum cutoff for charge density: 278. Ry
    The Pseudo was generated with a Scalar-Relativistic Calculation
    Local Potential by smoothing AE potential with Bessel fncs, cutoff radius:   1.9000
    Pseudopotential contains additional information for GIPAW reconstruction.
    Valence configuration:
    nl pn  l   occ       Rcut    Rcut US       E pseu
    5S  1  0  2.00      1.150      1.600    -4.415560
    6S  2  0  1.50      1.150      1.600    -0.368007
    5P  2  1  6.00      1.150      1.700    -2.333798
    6P  3  1  0.50      1.150      1.700    -0.122763
    5D  3  2  1.00      1.150      1.800    -0.177758
    Generation configuration:
    5S  1  0  2.00      1.150      1.600    -4.415600
    6S  2  0  1.50      1.150      1.600    -0.368012
    5P  2  1  6.00      1.150      1.700    -2.333826
    6P  3  1  0.50      1.150      1.700    -0.122765
    5D  3  2  1.00      1.150      1.800    -0.177770
    5D  3  2  0.00      1.150      1.800    -1.500000
    Pseudization used: troullier-martins
]]>
    <PP_INPUTFILE><![CDATA[
 &input
   title='Yb',
   zed=70.0,
   rel=1,
   config='[Xe] 4f13.0 5d1.0 6s1.5 6p0.5',
   iswitch=3,
   dft='PBE'
 /
 &inputp
   lpaw=.true.,
   pseudotype=3,
   file_pseudopw='Yb.pbe-spdn-kjpaw_psl.1.0.0.UPF',
   author='ADC',
   lloc=-1,
   rcloc=1.9,
   which_augfun='PSQ',
   rmatch_augfun_nc=.true.,
   nlcc=.true.,
   new_core_ps=.true.,
   rcore=1.1,
   tm=.true.
 /
6
5S  1  0  2.00  0.00  1.15  1.60  0.0
6S  2  0  1.50  0.00  1.15  1.60  0.0
5P  2  1  6.00  0.00  1.15  1.70  0.0
6P  3  1  0.50  0.00  1.15  1.70  0.0
5D  3  2  1.00  0.00  1.15  1.80  0.0
5D  3  2  0.00 -1.50  1.15  1.80  0.0
]]></PP_INPUTFILE>
  </PP_INFO>
  <!--
 END OF HUMAN READABLE SECTION 
-->
  <PP_HEADER generated="Generated using &quot;atomic&quot; code by A. Dal Corso  v.6.3MaX" author="ADC" date="27May2022" comment="" element="Yb" pseudo_type="PAW" relativistic="scalar" is_ultrasoft="true" is_paw="true" is_coulomb="false" has_so="false" has_wfc="true" has_gipaw="true" paw_as_gipaw="true" core_correction="true" functional=" SLA  PW   PBX  PBC" z_valence="1.100000000000e1" total_psenergy="-6.504339736936e2" wfc_cutoff="3.893661956549e1" rho_cutoff="2.781862403865e2" l_max="2" l_max_rho="4" l_local="-1" mesh_size="1269" number_of_wfc="5" number_of_proj="6"/>
  <PP_MESH dx="1.250000000000e-2" mesh="1269" xmin="-7.000000000000e0" rmax="1.000000000000e2" zmesh="7.000000000000e1">
    <PP_R>
      1.302688522220738e-5 1.319074326670032e-5 1.335666239166546e-5 1.352466852230363e-5
      1.369478790991457e-5 1.386704713599870e-5 1.404147311641055e-5 1.421809310556445e-5
      1.439693470069300e-5 1.457802584615935e-5 1.476139483782338e-5 1.494707032746312e-5
      1.513508132725157e-5 1.532545721428995e-5 1.551822773519797e-5 1.571342301076169e-5
      1.591107354064004e-5 1.611121020813046e-5 1.631386428499439e-5 1.651906743634368e-5
      1.672685172558821e-5 1.693724961944590e-5 1.715029399301573e-5 1.736601813491449e-5
      1.758445575247830e-5 1.780564097702928e-5 1.802960836920878e-5 1.825639292437750e-5
      1.848603007808354e-5 1.871855571159943e-5 1.895400615752845e-5 1.919241820548181e-5
      1.943382910782706e-5 1.967827658550882e-5 1.992579883394284e-5 2.017643452898402e-5
      2.043022283296963e-5 2.068720340083850e-5 2.094741638632719e-5 2.121090244824410e-5
      2.147770275682246e-5 2.174785900015331e-5 2.202141339069929e-5 2.229840867189046e-5
      2.257888812480310e-5 2.286289557492235e-5 2.315047539899009e-5 2.344167253193894e-5
      2.373653247391335e-5 2.403510129737916e-5 2.433742565432248e-5 2.464355278353918e-5
      2.495353051801600e-5 2.526740729240458e-5 2.558523215058957e-5 2.590705475335164e-5
      2.623292538612725e-5 2.656289496686573e-5 2.689701505398539e-5 2.723533785442966e-5
      2.757791623182442e-5 2.792480371473811e-5 2.827605450504566e-5 2.863172348639770e-5
      2.899186623279620e-5 2.935653901727798e-5 2.972579882070756e-5 3.009970334068049e-5
      3.047831100053869e-5 3.086168095849935e-5 3.124987311689836e-5 3.164294813155024e-5
      3.204096742122576e-5 3.244399317724866e-5 3.285208837321336e-5 3.326531677482448e-5
      3.368374294986047e-5 3.410743227826247e-5 3.453645096235005e-5 3.497086603716547e-5
      3.541074538094797e-5 3.585615772573997e-5 3.630717266812655e-5 3.676386068011000e-5
      3.722629312012140e-5 3.769454224417031e-5 3.816868121713501e-5 3.864878412419468e-5
      3.913492598240525e-5 3.962718275242127e-5 4.012563135036448e-5 4.063034965984240e-5
      4.114141654411776e-5 4.165891185843097e-5 4.218291646247780e-5 4.271351223304371e-5
      4.325078207679736e-5 4.379480994324489e-5 4.434568083784726e-5 4.490348083530257e-5
      4.546829709299524e-5 4.604021786461466e-5 4.661933251394497e-5 4.720573152882832e-5
      4.779950653530389e-5 4.840075031192445e-5 4.900955680425335e-5 4.962602113954362e-5
      5.025023964160182e-5 5.088230984583899e-5 5.152233051451044e-5 5.217040165214777e-5
      5.282662452118475e-5 5.349110165777971e-5 5.416393688783725e-5 5.484523534323092e-5
      5.553510347823044e-5 5.623364908613548e-5 5.694098131611842e-5 5.765721069027940e-5
      5.838244912091524e-5 5.911680992800625e-5 5.986040785692257e-5 6.061335909635344e-5
      6.137578129646201e-5 6.214779358726812e-5 6.292951659726294e-5 6.372107247225717e-5
      6.452258489446665e-5 6.533417910183818e-5 6.615598190761780e-5 6.698812172016588e-5
      6.783072856302111e-5 6.868393409521694e-5 6.954787163185376e-5 7.042267616492932e-5
      7.130848438443167e-5 7.220543469969734e-5 7.311366726103786e-5 7.403332398163892e-5
      7.496454855973406e-5 7.590748650105823e-5 7.686228514158316e-5 7.782909367053893e-5
      7.880806315372531e-5 7.979934655711571e-5 8.080309877075866e-5 8.181947663297979e-5
      8.284863895488773e-5 8.389074654518932e-5 8.494596223531563e-5 8.601445090486514e-5
      8.709637950736624e-5 8.819191709636430e-5 8.930123485183659e-5 9.042450610693924e-5
      9.156190637509118e-5 9.271361337739839e-5 9.387980707042304e-5 9.506066967430248e-5
      9.625638570122096e-5 9.746714198424039e-5 9.869312770649332e-5 9.993453443074301e-5
      1.011915561293161e-4 1.024643892144100e-4 1.037532325687842e-4 1.050582875768348e-4
      1.063797581560620e-4 1.077178507889325e-4 1.090727745551423e-4 1.104447411642867e-4
      1.118339649889396e-4 1.132406630981499e-4 1.146650552913594e-4 1.161073641327459e-4
      1.175678149860004e-4 1.190466360495401e-4 1.205440583921647e-4 1.220603159891621e-4
      1.235956457588662e-4 1.251502875996775e-4 1.267244844275465e-4 1.283184822139303e-4
      1.299325300242260e-4 1.315668800566877e-4 1.332217876818332e-4 1.348975114823459e-4
      1.365943132934786e-4 1.383124582439670e-4 1.400522147974547e-4 1.418138547944430e-4
      1.435976534947655e-4 1.454038896205981e-4 1.472328454000107e-4 1.490848066110644e-4
      1.509600626264665e-4 1.528589064587847e-4 1.547816348062307e-4 1.567285480990213e-4
      1.586999505463187e-4 1.606961501837667e-4 1.627174589216196e-4 1.647641925934803e-4
      1.668366710056493e-4 1.689352179870945e-4 1.710601614400517e-4 1.732118333912586e-4
      1.753905700438348e-4 1.775967118298156e-4 1.798306034633428e-4 1.820925939945295e-4
      1.843830368639981e-4 1.867022899581068e-4 1.890507156648706e-4 1.914286809305832e-4
      1.938365573171562e-4 1.962747210601735e-4 1.987435531276803e-4 2.012434392797105e-4
      2.037747701285608e-4 2.063379411998269e-4 2.089333529942032e-4 2.115614110500629e-4
      2.142225260068245e-4 2.169171136691135e-4 2.196455950717348e-4 2.224083965454585e-4
      2.252059497836356e-4 2.280386919096517e-4 2.309070655452268e-4 2.338115188795776e-4
      2.367525057394465e-4 2.397304856600137e-4 2.427459239567012e-4 2.457992917978769e-4
      2.488910662784788e-4 2.520217304945595e-4 2.551917736187719e-4 2.584016909768045e-4
      2.616519841247740e-4 2.649431609275984e-4 2.682757356383487e-4 2.716502289786037e-4
      2.750671682198132e-4 2.785270872656857e-4 2.820305267356111e-4 2.855780340491347e-4
      2.891701635114913e-4 2.928074764002180e-4 2.964905410528535e-4 3.002199329557433e-4
      3.039962348339596e-4 3.078200367423539e-4 3.116919361577539e-4 3.156125380723207e-4
      3.195824550880800e-4 3.236023075126424e-4 3.276727234561276e-4 3.317943389293082e-4
      3.359677979429873e-4 3.401937526086268e-4 3.444728632402411e-4 3.488057984575720e-4
      3.531932352905629e-4 3.576358592851450e-4 3.621343646103564e-4 3.666894541668062e-4
      3.713018396965050e-4 3.759722418940759e-4 3.807013905193641e-4 3.854900245114641e-4
      3.903388921041795e-4 3.952487509429369e-4 4.002203682031690e-4 4.052545207101871e-4
      4.103519950605633e-4 4.155135877450354e-4 4.207401052729613e-4 4.260323642983387e-4
      4.313911917474072e-4 4.368174249478585e-4 4.423119117596699e-4 4.478755107075841e-4
      4.535090911152564e-4 4.592135332410868e-4 4.649897284157634e-4 4.708385791815338e-4
      4.767609994332297e-4 4.827579145610651e-4 4.888302615952290e-4 4.949789893523003e-4
      5.012050585835006e-4 5.075094421248139e-4 5.138931250489952e-4 5.203571048194890e-4
      5.269023914462860e-4 5.335300076437375e-4 5.402409889903583e-4 5.470363840906379e-4
      5.539172547388858e-4 5.608846760851403e-4 5.679397368031617e-4 5.750835392605408e-4
      5.823171996909461e-4 5.896418483685364e-4 5.970586297845703e-4 6.045687028262331e-4
      6.121732409577170e-4 6.198734324035769e-4 6.276704803343915e-4 6.355656030547646e-4
      6.435600341936832e-4 6.516550228972772e-4 6.598518340240017e-4 6.681517483422711e-4
      6.765560627305847e-4 6.850660903801639e-4 6.936831610001426e-4 7.024086210253369e-4
      7.112438338266278e-4 7.201901799239909e-4 7.292490572022059e-4 7.384218811292773e-4
      7.477100849776054e-4 7.571151200479401e-4 7.666384558961448e-4 7.762815805628211e-4
      7.860460008058179e-4 7.959332423356626e-4 8.059448500539622e-4 8.160823882947899e-4
      8.263474410691211e-4 8.367416123123363e-4 8.472665261348389e-4 8.579238270758278e-4
      8.687151803602566e-4 8.796422721590320e-4 8.907068098524778e-4 9.019105222971197e-4
      9.132551600958223e-4 9.247424958713223e-4 9.363743245432053e-4 9.481524636083662e-4
      9.600787534249966e-4 9.721550575001457e-4 9.843832627808940e-4 9.967652799491953e-4
      1.009303043720423e-3 1.021998513145675e-3 1.034853671917878e-3 1.047870528681745e-3
      1.061051117347627e-3 1.074397497409320e-3 1.087911754265862e-3 1.101595999547382e-3
      1.115452371445045e-3 1.129483035045153e-3 1.143690182667437e-3 1.158076034207618e-3
      1.172642837484268e-3 1.187392868590037e-3 1.202328432247292e-3 1.217451862168241e-3
      1.232765521419579e-3 1.248271802791720e-3 1.263973129172676e-3 1.279871953926639e-3
      1.295970761277322e-3 1.312272066696127e-3 1.328778417295193e-3 1.345492392225381e-3
      1.362416603079281e-3 1.379553694299269e-3 1.396906343590715e-3 1.414477262340376e-3
      1.432269196040053e-3 1.450284924715587e-3 1.468527263361235e-3 1.486999062379524e-3
      1.505703208026633e-3 1.524642622863374e-3 1.543820266211847e-3 1.563239134617842e-3
      1.582902262319057e-3 1.602812721719196e-3 1.622973623868054e-3 1.643388118947606e-3
      1.664059396764243e-3 1.684990687247180e-3 1.706185260953137e-3 1.727646429577381e-3
      1.749377546471170e-3 1.771382007165732e-3 1.793663249902819e-3 1.816224756171937e-3
      1.839070051254346e-3 1.862202704773881e-3 1.885626331254718e-3 1.909344590686150e-3
      1.933361189094467e-3 1.957679879122036e-3 1.982304460613647e-3 2.007238781210260e-3
      2.032486736950196e-3 2.058052272877904e-3 2.083939383660391e-3 2.110152114211384e-3
      2.136694560323359e-3 2.163570869307524e-3 2.190785240641835e-3 2.218341926627186e-3
      2.246245233051824e-3 2.274499519864148e-3 2.303109201853955e-3 2.332078749342263e-3
      2.361412688879808e-3 2.391115603954322e-3 2.421192135706717e-3 2.451646983656270e-3
      2.482484906434931e-3 2.513710722530878e-3 2.545329311041407e-3 2.577345612435298e-3
      2.609764629324782e-3 2.642591427247204e-3 2.675831135456530e-3 2.709488947724791e-3
      2.743570123153632e-3 2.778079986996052e-3 2.813023931488487e-3 2.848407416693360e-3
      2.884235971352221e-3 2.920515193749630e-3 2.957250752587897e-3 2.994448387872826e-3
      3.032113911810615e-3 3.070253209716010e-3 3.108872240931900e-3 3.147977039760486e-3
      3.187573716406140e-3 3.227668457930156e-3 3.268267529217464e-3 3.309377273955556e-3
      3.351004115625683e-3 3.393154558506545e-3 3.435835188690603e-3 3.479052675113154e-3
      3.522813770594380e-3 3.567125312894481e-3 3.611994225782093e-3 3.657427520116144e-3
      3.703432294941309e-3 3.750015738597249e-3 3.797185129841811e-3 3.844947838988340e-3
      3.893311329057324e-3 3.942283156942474e-3 3.991870974591535e-3 4.042082530201901e-3
      4.092925669431287e-3 4.144408336623647e-3 4.196538576050471e-3 4.249324533167725e-3
      4.302774455888604e-3 4.356896695872275e-3 4.411699709828857e-3 4.467192060840770e-3
      4.523382419700762e-3 4.580279566266727e-3 4.637892390833568e-3 4.696229895522346e-3
      4.755301195686852e-3 4.815115521337922e-3 4.875682218585628e-3 4.937010751099636e-3
      4.999110701587934e-3 5.061991773294126e-3 5.125663791513597e-3 5.190136705128735e-3
      5.255420588163462e-3 5.321525641357328e-3 5.388462193759387e-3 5.456240704342131e-3
      5.524871763635736e-3 5.594366095382844e-3 5.664734558214185e-3 5.735988147345240e-3
      5.808137996294276e-3 5.881195378621983e-3 5.955171709692976e-3 6.030078548459508e-3
      6.105927599267526e-3 6.182730713685536e-3 6.260499892356421e-3 6.339247286872569e-3
      6.418985201674596e-3 6.499726095973910e-3 6.581482585699515e-3 6.664267445469267e-3
      6.748093610585925e-3 6.832974179058344e-3 6.918922413648038e-3 7.005951743941519e-3
      7.094075768448713e-3 7.183308256727727e-3 7.273663151536419e-3 7.365154571010919e-3
      7.457796810871663e-3 7.551604346657110e-3 7.646591835985575e-3 7.742774120845532e-3
      7.840166229914667e-3 7.938783380908168e-3 8.038640982956515e-3 8.139754639013185e-3
      8.242140148292666e-3 8.345813508739086e-3 8.450790919525934e-3 8.557088783587226e-3
      8.664723710180478e-3 8.773712517481970e-3 8.884072235214578e-3 8.995820107308719e-3
      9.108973594596769e-3 9.223550377541315e-3 9.339568358997820e-3 9.457045667011917e-3
      9.576000657651996e-3 9.696451917877354e-3 9.818418268442459e-3 9.941918766837745e-3
      1.006697271026734e-2 1.019359963866433e-2 1.032181933774390e-2 1.045165184209488e-2
      1.058311743831026e-2 1.071623666815689e-2 1.085103033178527e-2 1.098751949097958e-2
      1.112572547244864e-2 1.126566987115824e-2 1.140737455370539e-2 1.155086166173504e-2
      1.169615361539975e-2 1.184327311686286e-2 1.199224315384582e-2 1.214308700321998e-2
      1.229582823464369e-2 1.245049071424512e-2 1.260709860835136e-2 1.276567638726451e-2
      1.292624882908514e-2 1.308884102358397e-2 1.325347837612219e-2 1.342018661162108e-2
      1.358899177858163e-2 1.375992025315460e-2 1.393299874326190e-2 1.410825429276974e-2
      1.428571428571428e-2 1.446540645058050e-2 1.464735886463471e-2 1.483159995831179e-2
      1.501815851965750e-2 1.520706369882656e-2 1.539834501263759e-2 1.559203234918503e-2
      1.578815597250926e-2 1.598674652732545e-2 1.618783504381180e-2 1.639145294245818e-2
      1.659763203897548e-2 1.680640454926702e-2 1.701780309446227e-2 1.723186070601401e-2
      1.744861083085957e-2 1.766808733664693e-2 1.789032451702664e-2 1.811535709701029e-2
      1.834322023839631e-2 1.857394954526416e-2 1.880758106953746e-2 1.904415131661719e-2
      1.928369725108577e-2 1.952625630248281e-2 1.977186637115360e-2 2.002056583417105e-2
      2.027239355133226e-2 2.052738887123036e-2 2.078559163740287e-2 2.104704219455737e-2
      2.131178139487530e-2 2.157985060439533e-2 2.185129170947686e-2 2.212614712334476e-2
      2.240445979271670e-2 2.268627320451349e-2 2.297163139265405e-2 2.326057894493587e-2
      2.355316101000184e-2 2.384942330439490e-2 2.414941211970131e-2 2.445317432978379e-2
      2.476075739810566e-2 2.507220938514712e-2 2.538757895591484e-2 2.570691538754585e-2
      2.603026857700729e-2 2.635768904889288e-2 2.668922796331747e-2 2.702493712391100e-2
      2.736486898591281e-2 2.770907666436793e-2 2.805761394242641e-2 2.841053527974703e-2
      2.876789582100682e-2 2.912975140451737e-2 2.949615857094983e-2 2.986717457216939e-2
      3.024285738018107e-2 3.062326569618800e-2 3.100845895976347e-2 3.139849735813861e-2
      3.179344183560670e-2 3.219335410304583e-2 3.259829664756149e-2 3.300833274225007e-2
      3.342352645608560e-2 3.384394266393059e-2 3.426964705667283e-2 3.470070615148984e-2
      3.513718730224216e-2 3.557915870999761e-2 3.602668943368785e-2 3.647984940089896e-2
      3.693870941879781e-2 3.740334118519574e-2 3.787381729975154e-2 3.835021127531531e-2
      3.883259754941493e-2 3.932105149588724e-2 3.981564943665502e-2 4.031646865365285e-2
      4.082358740090236e-2 4.133708491673945e-2 4.185704143619579e-2 4.238353820353526e-2
      4.291665748494903e-2 4.345648258140951e-2 4.400309784168615e-2 4.455658867552565e-2
      4.511704156699670e-2 4.568454408800393e-2 4.625918491197091e-2 4.684105382769533e-2
      4.743024175337930e-2 4.802684075083472e-2 4.863094403986883e-2 4.924264601284968e-2
      4.986204224945487e-2 5.048922953160676e-2 5.112430585859400e-2 5.176737046238486e-2
      5.241852382313209e-2 5.307786768487292e-2 5.374550507142734e-2 5.442154030249517e-2
      5.510607900995677e-2 5.579922815437792e-2 5.650109604172253e-2 5.721179234027614e-2
      5.793142809778109e-2 5.866011575878874e-2 5.939796918222873e-2 6.014510365919943e-2
      6.090163593098318e-2 6.166768420728634e-2 6.244336818471082e-2 6.322880906545625e-2
      6.402412957625807e-2 6.482945398756438e-2 6.564490813295272e-2 6.647061942879241e-2
      6.730671689415349e-2 6.815333117096576e-2 6.901059454443262e-2 6.987864096370009e-2
      7.075760606278734e-2 7.164762718177947e-2 7.254884338828687e-2 7.346139549917559e-2
      7.438542610256929e-2 7.532107958012986e-2 7.626850212961685e-2 7.722784178773096e-2
      7.819924845324579e-2 7.918287391042891e-2 8.017887185275935e-2 8.118739790694212e-2
      8.220860965722473e-2 8.324266667002114e-2 8.428973051884313e-2 8.534996480954746e-2
      8.642353520589928e-2 8.751060945545696e-2 8.861135741578387e-2 8.972595108098808e-2
      9.085456460859756e-2 9.199737434677234e-2 9.315455886185875e-2 9.432629896629193e-2
      9.551277774684674e-2 9.671418059324676e-2 9.793069522713118e-2 9.916251173138622e-2
      1.004098225798471e-1 1.016728226673714e-1 1.029517093402924e-1 1.042466824272548e-1
      1.055579442704379e-1 1.068856997571727e-1 1.082301563519550e-1 1.095915241288632e-1
      1.109700158043825e-1 1.123658467706413e-1 1.137792351290683e-1 1.152104017244696e-1
      1.166595701795378e-1 1.181269669297925e-1 1.196128212589609e-1 1.211173653348055e-1
      1.226408342453985e-1 1.241834660358572e-1 1.257455017455373e-1 1.273271854456962e-1
      1.289287642776304e-1 1.305504884912904e-1 1.321926114843841e-1 1.338553898419705e-1
      1.355390833765504e-1 1.372439551686644e-1 1.389702716079984e-1 1.407183024350083e-1
      1.424883207830675e-1 1.442806032211436e-1 1.460954297970144e-1 1.479330840810242e-1
      1.497938532103939e-1 1.516780279340859e-1 1.535859026582336e-1 1.555177754921450e-1
      1.574739482948801e-1 1.594547267224195e-1 1.614604202754227e-1 1.634913423475874e-1
      1.655478102746200e-1 1.676301453838174e-1 1.697386730442771e-1 1.718737227177363e-1
      1.740356280100496e-1 1.762247267233181e-1 1.784413609086688e-1 1.806858769197032e-1
      1.829586254666149e-1 1.852599616709876e-1 1.875902451212861e-1 1.899498399290398e-1
      1.923391147857387e-1 1.947584430204395e-1 1.972082026581013e-1 1.996887764786521e-1
      2.022005520767972e-1 2.047439219225850e-1 2.073192834227275e-1 2.099270389826992e-1
      2.125675960696122e-1 2.152413672758827e-1 2.179487703837026e-1 2.206902284303147e-1
      2.234661697741168e-1 2.262770281615919e-1 2.291232427950811e-1 2.320052584014122e-1
      2.349235253013866e-1 2.378784994801449e-1 2.408706426584150e-1 2.439004223646552e-1
      2.469683120081095e-1 2.500747909527756e-1 2.532203445923092e-1 2.564054644258666e-1
      2.596306481349009e-1 2.628963996609296e-1 2.662032292842716e-1 2.695516537037840e-1
      2.729421961175952e-1 2.763753863048545e-1 2.798517607085146e-1 2.833718625191476e-1
      2.869362417598238e-1 2.905454553720519e-1 2.942000673028005e-1 2.979006485926205e-1
      3.016477774648661e-1 3.054420394160478e-1 3.092840273073154e-1 3.131743414570924e-1
      3.171135897348809e-1 3.211023876562375e-1 3.251413584789533e-1 3.292311333004371e-1
      3.333723511563246e-1 3.375656591203322e-1 3.418117124053593e-1 3.461111744658711e-1
      3.504647171015625e-1 3.548730205623264e-1 3.593367736545485e-1 3.638566738487299e-1
      3.684334273884724e-1 3.730677494008285e-1 3.777603640080400e-1 3.825120044406880e-1
      3.873234131522558e-1 3.921953419351443e-1 3.971285520381385e-1 4.021238142853522e-1
      4.071819091966759e-1 4.123036271097290e-1 4.174897683033564e-1 4.227411431226711e-1
      4.280585721056718e-1 4.334428861114565e-1 4.388949264500419e-1 4.444155450138237e-1
      4.500056044106852e-1 4.556659780987785e-1 4.613975505230103e-1 4.672012172532311e-1
      4.730778851241759e-1 4.790284723771566e-1 4.850539088035364e-1 4.911551358900176e-1
      4.973331069657435e-1 5.035887873512649e-1 5.099231545093701e-1 5.163371981978133e-1
      5.228319206239719e-1 5.294083366014370e-1 5.360674737085858e-1 5.428103724491400e-1
      5.496380864147449e-1 5.565516824496003e-1 5.635522408171507e-1 5.706408553688847e-1
      5.778186337152491e-1 5.850866973987115e-1 5.924461820690117e-1 5.998982376606001e-1
      6.074440285723255e-1 6.150847338493709e-1 6.228215473674787e-1 6.306556780195041e-1
      6.385883499042979e-1 6.466208025179824e-1 6.547542909476216e-1 6.629900860673282e-1
      6.713294747368478e-1 6.797737600026243e-1 6.883242613014117e-1 6.969823146664352e-1
      7.057492729361456e-1 7.146265059656116e-1 7.236154008405524e-1 7.327173620940814e-1
      7.419338119261641e-1 7.512661904258350e-1 7.607159557962242e-1 7.702845845823938e-1
      7.799735719020605e-1 7.897844316792070e-1 7.997186968806308e-1 8.097779197554839e-1
      8.199636720778035e-1 8.302775453921141e-1 8.407211512621066e-1 8.512961215224427e-1
      8.620041085337437e-1 8.728467854407624e-1 8.838258464338269e-1 8.949430070135559e-1
      9.062000042589048e-1 9.175985970985993e-1 9.291405665859573e-1 9.408277161771958e-1
      9.526618720132173e-1 9.646448832049451e-1 9.767786221222604e-1 9.890649846865520e-1
      1.001505890666969e0 1.014103283980385e0 1.026859132995130e0 1.039775430838568e0
      1.052854195708512e0 1.066097471188584e0 1.079507326567524e0 1.093085857162513e0
      1.106835184646585e0 1.120757457380131e0 1.134854850746591e0 1.149129567492362e0
      1.163583838070974e0 1.178219920991616e0 1.193040103172018e0 1.208046700295800e0
      1.223242057174295e0 1.238628548112927e0 1.254208577282213e0 1.269984579093405e0
      1.285959018578883e0 1.302134391777321e0 1.318513226123684e0 1.335098080844168e0
      1.351891547356059e0 1.368896249672670e0 1.386114844813335e0 1.403550023218572e0
      1.421204509170485e0 1.439081061218416e0 1.457182472609996e0 1.475511571727584e0
      1.494071222530203e0 1.512864325001058e0 1.531893815600637e0 1.551162667725566e0
      1.570673892173194e0 1.590430537612034e0 1.610435691058133e0 1.630692478357415e0
      1.651204064674110e0 1.671973654985313e0 1.693004494581762e0 1.714299869574937e0
      1.735863107410499e0 1.757697577388236e0 1.779806691188506e0 1.802193903405317e0
      1.824862712086129e0 1.847816659278414e0 1.871059331583123e0 1.894594360715095e0
      1.918425424070507e0 1.942556245301502e0 1.966990594897982e0 1.991732290776788e0
      2.016785198878243e0 2.042153233770200e0 2.067840359259731e0 2.093850589012445e0
      2.120187987179666e0 2.146856669033443e0 2.173860801609566e0 2.201204604358699e0
      2.228892349805645e0 2.256928364216964e0 2.285317028276952e0 2.314062777772119e0
      2.343170104284314e0 2.372643555892516e0 2.402487737883507e0 2.432707313471445e0
      2.463307004526491e0 2.494291592312635e0 2.525665918234749e0 2.557434884595095e0
      2.589603455359305e0 2.622176656932000e0 2.655159578942205e0 2.688557375038578e0
      2.722375263694714e0 2.756618529024523e0 2.791292521607871e0 2.826402659326654e0
      2.861954428211312e0 2.897953383298070e0 2.934405149496905e0 2.971315422470438e0
      3.008689969523925e0 3.046534630506372e0 3.084855318723059e0 3.123658021859488e0
      3.162948802916960e0 3.202733801159961e0 3.243019233075402e0 3.283811393343984e0
      3.325116655823747e0 3.366941474545980e0 3.409292384723712e0 3.452176003772811e0
      3.495599032346005e0 3.539568255379862e0 3.584090543154923e0 3.629172852369247e0
      3.674822227225357e0 3.721045800530954e0 3.767850794813418e0 3.815244523448316e0
      3.863234391802186e0 3.911827898389579e0 3.961032636044771e0 4.010856293108136e0
      4.061306654627442e0 4.112391603574333e0 4.164119122076002e0 4.216497292662462e0
      4.269534299529437e0 4.323238429817141e0 4.377618074905208e0 4.432681731723806e0
      4.488438004081345e0 4.544895604008829e0 4.602063353121093e0 4.659950183995262e0
      4.718565141566413e0 4.777917384540929e0 4.838016186827536e0 4.898870938986349e0
      4.960491149696216e0 5.022886447240412e0 5.086066581011130e0 5.150041423032825e0
      5.214820969504698e0 5.280415342362703e0 5.346834790861031e0 5.414089693173651e0
      5.482190558015889e0 5.551148026286412e0 5.620972872729950e0 5.691676007620799e0
      5.763268478467644e0 5.835761471739722e0 5.909166314614697e0 5.983494476748633e0
      6.058757572068065e0 6.134967360584771e0 6.212135750233267e0 6.290274798731413e0
      6.369396715464537e0 6.449513863393079e0 6.530638760984414e0 6.612784084168851e0
      6.695962668320243e0 6.780187510261613e0 6.865471770295848e0 6.951828774262103e0
      7.039272015617954e0 7.127815157547744e0 7.217472035097564e0 7.308256657336917e0
      7.400183209547743e0 7.493266055440864e0 7.587519739400302e0 7.682958988755963e0
      7.779598716084706e0 7.877454021540554e0 7.976540195214086e0 8.076872719521504e0
      8.178467271623884e0 8.281339725876663e0 8.385506156310127e0 8.490982839140974e0
      8.597786255315460e0 8.705933093084687e0 8.815440250612053e0 8.926324838613727e0
      9.038604183032200e0 9.152295827743441e0 9.267417537298272e0 9.383987299697997e0
      9.502023329205169e0 9.621544069189563e0 9.742568195009936e0 9.865114616932205e0
      9.989202483084084e0 1.011485118244714e1 1.024208034788628e1 1.037090985921745e1
      1.050135984631391e1 1.063345069225153e1 1.076720303649373e1 1.090263777811645e1
      1.103977607907357e1 1.117863936750367e1 1.131924934107803e1 1.146162797039113e1
      1.160579750239349e1 1.175178046386775e1 1.189959966494870e1 1.204927820268719e1
      1.220083946465931e1 1.235430713262060e1 1.250970518620637e1 1.266705790667870e1
      1.282638988072026e1 1.298772600427618e1 1.315109148644402e1 1.331651185341269e1
      1.348401295245114e1 1.365362095594682e1 1.382536236549538e1 1.399926401604149e1
      1.417535308007180e1 1.435365707186088e1 1.453420385177016e1 1.471702163060134e1
      1.490213897400434e1 1.508958480694065e1 1.527938841820306e1 1.547157946499195e1
      1.566618797754941e1 1.586324436385150e1 1.606277941435944e1 1.626482430683088e1
      1.646941061119127e1 1.667657029446693e1 1.688633572577989e1 1.709873968140548e1
      1.731381534989398e1 1.753159633725610e1 1.775211667221423e1 1.797541081151938e1
      1.820151364533506e1 1.843046050268912e1 1.866228715699376e1 1.889702983163540e1
      1.913472520563456e1 1.937541041937698e1 1.961912308041703e1 1.986590126935378e1
      2.011578354578137e1 2.036880895431389e1 2.062501703068615e1 2.088444780793142e1
      2.114714182263638e1 2.141314012127532e1 2.168248426662362e1 2.195521634425189e1
      2.223137896910223e1 2.251101529214655e1 2.279416900712927e1 2.308088435739450e1
      2.337120614279896e1 2.366517972671236e1 2.396285104310520e1 2.426426660372632e1
      2.456947350537035e1 2.487851943723653e1 2.519145268838057e1 2.550832215525953e1
      2.582917734937233e1 2.615406840499589e1 2.648304608701855e1 2.681616179887253e1
      2.715346759056544e1 2.749501616681354e1 2.784086089527678e1 2.819105581489755e1
      2.854565564434459e1 2.890471579056259e1 2.926829235742997e1 2.963644215452505e1
      3.000922270600254e1 3.038669225958213e1 3.076890979564943e1 3.115593503647213e1
      3.154782845553159e1 3.194465128697171e1 3.234646553516738e1 3.275333398441227e1
      3.316532020872939e1 3.358248858180454e1 3.400490428704465e1 3.443263332776319e1
      3.486574253749287e1 3.530429959042893e1 3.574837301200322e1 3.619803218959120e1
      3.665334738335434e1 3.711438973721787e1 3.758123128998766e1 3.805394498660618e1
      3.853260468955014e1 3.901728519037212e1 3.950806222138629e1 4.000501246750233e1
      4.050821357820733e1 4.101774417969845e1 4.153368388716897e1 4.205611331724772e1
      4.258511410059612e1 4.312076889466290e1 4.366316139659928e1 4.421237635633736e1
      4.476849958983180e1 4.533161799246937e1 4.590181955264625e1 4.647919336551612e1
      4.706382964691208e1 4.765581974744240e1 4.825525616676479e1 4.886223256803938e1
      4.947684379256365e1 5.009918587459200e1 5.072935605634076e1 5.136745280318298e1
      5.201357581903370e1 5.266782606192848e1 5.333030575979907e1 5.400111842644588e1
      5.468036887771294e1 5.536816324786534e1 5.606460900617250e1 5.676981497370132e1