<?xml version="1.0" encoding="UTF-8"?>
<UPF version="2.0.1">
  <PP_INFO><![CDATA[
Generated using "atomic" code by A. Dal Corso  v.6.3MaX
Author: ADC
Generation date: 27May2022
Pseudopotential type: PAW
Element: Se
Functional:  SLA  PW   PBX  PBC
    Suggested minimum cutoff for wavefunctions:  21. Ry
    Suggested minimum cutoff for charge density:  95. Ry
    The Pseudo was generated with a Scalar-Relativistic Calculation
    L component and cutoff radius for Local Potential:  2   1.9000
    Pseudopotential contains additional information for GIPAW reconstruction.
    Valence configuration:
    nl pn  l   occ       Rcut    Rcut US       E pseu
    4S  1  0  2.00      1.700      1.800    -1.270585
    4P  2  1  4.00      1.900      2.000    -0.478578
    Generation configuration:
    4S  1  0  2.00      1.700      1.800    -1.270580
    4S  1  0  0.00      1.700      1.800     0.300000
    4P  2  1  4.00      1.900      2.000    -0.478576
    4P  2  1  0.00      1.900      2.000     0.300000
    4D  3  2 -2.00      1.900      1.900     0.200000
    Pseudization used: troullier-martins
]]>
    <PP_INPUTFILE><![CDATA[
 &input
   title='Se',
   zed=34.,
   rel=1,
   config='[Ar] 3d10.0 4s2.0 4p4.0 4d-2.0',
   iswitch=3,
   dft='PBE'
 /
 &inputp
   lpaw=.true.,
   pseudotype=3,
   file_pseudopw='Se.pbe-n-kjpaw_psl.0.2.UPF',
   author='ADC',
   lloc=2,
   which_augfun='PSQ',
   rmatch_augfun=1.7,
   nlcc=.true.,
   new_core_ps=.true.,
   rcore=1.4,
   tm=.true.
 /
5
4S  1  0  2.00  0.00  1.70  1.80  0.0
4S  1  0  0.00  0.30  1.70  1.80  0.0
4P  2  1  4.00  0.00  1.90  2.00  0.0
4P  2  1  0.00  0.30  1.90  2.00  0.0
4D  3  2 -2.00  0.20  1.90  1.90  0.0
]]></PP_INPUTFILE>
  </PP_INFO>
  <!--
 END OF HUMAN READABLE SECTION 
-->
  <PP_HEADER generated="Generated using &quot;atomic&quot; code by A. Dal Corso  v.6.3MaX" author="ADC" date="27May2022" comment="" element="Se" pseudo_type="PAW" relativistic="scalar" is_ultrasoft="true" is_paw="true" is_coulomb="false" has_so="false" has_wfc="true" has_gipaw="true" paw_as_gipaw="true" core_correction="true" functional=" SLA  PW   PBX  PBC" z_valence="6.000000000000e0" total_psenergy="-1.890691263199e2" wfc_cutoff="2.061225988022e1" rho_cutoff="9.457036515185e1" l_max="1" l_max_rho="2" l_local="2" mesh_size="1211" number_of_wfc="2" number_of_proj="4"/>
  <PP_MESH dx="1.250000000000e-2" mesh="1211" xmin="-7.000000000000e0" rmax="1.000000000000e2" zmesh="3.400000000000e1">
    <PP_R>
      2.682005781042695e-5 2.715741260791242e-5 2.749901080637007e-5 2.784490578121335e-5
      2.819515157923588e-5 2.854980292705614e-5 2.890891523966879e-5 2.927254462910327e-5
      2.964074791319149e-5 3.001358262444572e-5 3.039110701904815e-5 3.077338008595349e-5
      3.116046155610618e-5 3.155241191177343e-5 3.194929239599582e-5 3.235116502215641e-5
      3.275809258367068e-5 3.317013866379801e-5 3.358736764557669e-5 3.400984472188406e-5
      3.443763590562278e-5 3.487080804003567e-5 3.530942880915002e-5 3.575356674835337e-5
      3.620329125510239e-5 3.665867259976616e-5 3.711978193660630e-5 3.758669131489484e-5
      3.805947369017200e-5 3.853820293564589e-5 3.902295385373504e-5 3.951380218775667e-5
      4.001082463376159e-5 4.051409885251815e-5 4.102370348164702e-5 4.153971814790828e-5
      4.206222347964337e-5 4.259130111937340e-5 4.312703373655597e-5 4.366950504050255e-5
      4.421879979345801e-5 4.477500382384505e-5 4.533820403967501e-5 4.590848844212742e-5
      4.648594613930051e-5 4.707066736013426e-5 4.766274346850902e-5 4.826226697752135e-5
      4.886933156393924e-5 4.948403208283944e-5 5.010646458242864e-5 5.073672631905125e-5
      5.137491577238587e-5 5.202113266083296e-5 5.267547795709616e-5 5.333805390395927e-5
      5.400896403026198e-5 5.468831316707650e-5 5.537620746408757e-5 5.607275440617872e-5
      5.677806283022675e-5 5.749224294210785e-5 5.821540633391756e-5 5.894766600140704e-5
      5.968913636163923e-5 6.043993327086643e-5 6.120017404263322e-5 6.196997746610689e-5
      6.274946382463847e-5 6.353875491455749e-5 6.433797406420250e-5 6.514724615319168e-5
      6.596669763193539e-5 6.679645654139432e-5 6.763665253308635e-5 6.848741688934455e-5
      6.934888254383037e-5 7.022118410230510e-5 7.110445786366187e-5 7.199884184122302e-5
      7.290447578430468e-5 7.382150120005289e-5 7.475006137555464e-5 7.569030140022647e-5
      7.664236818848524e-5 7.760641050270357e-5 7.858257897645443e-5 7.957102613804786e-5
      8.057190643436378e-5 8.158537625498495e-5 8.261159395663270e-5 8.365071988791080e-5
      8.470291641436008e-5 8.576834794382846e-5 8.684718095216017e-5 8.793958400920765e-5
      8.904572780517107e-5 9.016578517726892e-5 9.129993113674438e-5 9.244834289621119e-5
      9.361119989734314e-5 9.478868383891253e-5 9.598097870518083e-5 9.718827079464653e-5
      9.841074874915506e-5 9.964860358337386e-5 1.009020287146392e-4 1.021712199931780e-4
      1.034563757327096e-4 1.047576967414332e-4 1.060753863534038e-4 1.074096504603042e-4
      1.087606975436156e-4 1.101287387071935e-4 1.115139877102532e-4 1.129166610007695e-4
      1.143369777492979e-4 1.157751598832201e-4 1.172314321214203e-4 1.187060220093988e-4
      1.201991599548255e-4 1.217110792635423e-4 1.232420161760171e-4 1.247922099042571e-4
      1.263619026691865e-4 1.279513397384932e-4 1.295607694649531e-4 1.311904433252354e-4
      1.328406159591961e-4 1.345115452096668e-4 1.362034921627425e-4 1.379167211885768e-4
      1.396514999826905e-4 1.414080996077996e-4 1.431867945361695e-4 1.449878626925015e-4
      1.468115854973593e-4 1.486582479111416e-4 1.505281384786074e-4 1.524215493739625e-4
      1.543387764465113e-4 1.562801192668846e-4 1.582458811738477e-4 1.602363693216978e-4
      1.622518947282580e-4 1.642927723234735e-4 1.663593209986208e-4 1.684518636561348e-4
      1.705707272600630e-4 1.727162428871545e-4 1.748887457785910e-4 1.770885753923694e-4
      1.793160754563423e-4 1.815715940219265e-4 1.838554835184871e-4 1.861681008084044e-4
      1.885098072428348e-4 1.908809687181732e-4 1.932819557332239e-4 1.957131434470934e-4
      1.981749117378079e-4 2.006676452616714e-4 2.031917335133686e-4 2.057475708868238e-4
      2.083355567368272e-4 2.109560954414323e-4 2.136095964651439e-4 2.162964744228952e-4
      2.190171491448334e-4 2.217720457419199e-4 2.245615946723518e-4 2.273862318088256e-4
      2.302463985066404e-4 2.331425416726616e-4 2.360751138351518e-4 2.390445732144768e-4
      2.420513837947068e-4 2.450960153961121e-4 2.481789437485745e-4 2.513006505659220e-4
      2.544616236211952e-4 2.576623568228655e-4 2.609033502920076e-4 2.641851104404446e-4
      2.675081500498772e-4 2.708729883520041e-4 2.742801511096566e-4 2.777301706989474e-4
      2.812235861924560e-4 2.847609434434616e-4 2.883427951712302e-4 2.919697010473827e-4
      2.956422277833408e-4 2.993609492188785e-4 3.031264464117868e-4 3.069393077286619e-4
      3.108001289368428e-4 3.147095132974979e-4 3.186680716598869e-4 3.226764225568085e-4
      3.267351923012443e-4 3.308450150842254e-4 3.350065330739228e-4 3.392203965159889e-4
      3.434872638351604e-4 3.478078017381359e-4 3.521826853177536e-4 3.566125981584735e-4
      3.610982324431893e-4 3.656402890613850e-4 3.702394777186470e-4 3.748965170475609e-4
      3.796121347199963e-4 3.843870675608082e-4 3.892220616629688e-4 3.941178725041420e-4
      3.990752650647334e-4 4.040950139474159e-4 4.091779034981652e-4 4.143247279288158e-4
      4.195362914411546e-4 4.248134083525846e-4 4.301569032233595e-4 4.355676109854235e-4
      4.410463770728740e-4 4.465940575540572e-4 4.522115192653362e-4 4.578996399465320e-4
      4.636593083780731e-4 4.694914245198713e-4 4.753968996519375e-4 4.813766565167771e-4
      4.874316294635664e-4 4.935627645941459e-4 4.997710199108554e-4 5.060573654662171e-4
      5.124227835145151e-4 5.188682686652695e-4 5.253948280386480e-4 5.320034814228326e-4
      5.386952614333582e-4 5.454712136744671e-4 5.523323969024827e-4 5.592798831912428e-4
      5.663147580996155e-4 5.734381208411174e-4 5.806510844556700e-4 5.879547759835125e-4
      5.953503366413058e-4 6.028389220004487e-4 6.104217021676394e-4 6.180998619677069e-4
      6.258746011287403e-4 6.337471344695521e-4 6.417186920894934e-4 6.497905195606601e-4
      6.579638781225176e-4 6.662400448789697e-4 6.746203129979098e-4 6.831059919132815e-4
      6.916984075296796e-4 7.003989024295258e-4 7.092088360828491e-4 7.181295850597069e-4
      7.271625432452764e-4 7.363091220576514e-4 7.455707506683807e-4 7.549488762257774e-4
      7.644449640810396e-4 7.740604980172151e-4 7.837969804810438e-4 7.936559328177202e-4
      8.036388955086050e-4 8.137474284119289e-4 8.239831110065241e-4 8.343475426386206e-4
      8.448423427717479e-4 8.554691512397788e-4 8.662296285031555e-4 8.771254559083443e-4
      8.881583359505441e-4 8.993299925397087e-4 9.106421712699085e-4 9.220966396920849e-4
      9.336951875902340e-4 9.454396272610609e-4 9.573317937971598e-4 9.693735453737460e-4
      9.815667635390025e-4 9.939133535080751e-4 1.006415244460766e-3 1.019074389842971e-3
      1.031892767671913e-3 1.044872380845205e-3 1.058015257453814e-3 1.071323451098948e-3
      1.084799041212942e-3 1.098444133384165e-3 1.112260859686032e-3 1.126251379010137e-3
      1.140417877403588e-3 1.154762568410583e-3 1.169287693418274e-3 1.183995522006996e-3
      1.198888352304889e-3 1.213968511346987e-3 1.229238355438821e-3 1.244700270524597e-3
      1.260356672560006e-3 1.276210007889717e-3 1.292262753629630e-3 1.308517418053927e-3
      1.324976540986995e-3 1.341642694200277e-3 1.358518481814121e-3 1.375606540704676e-3
      1.392909540915910e-3 1.410430186076808e-3 1.428171213823823e-3 1.446135396228635e-3
      1.464325540231292e-3 1.482744488078805e-3 1.501395117769247e-3 1.520280343501453e-3
      1.539403116130364e-3 1.558766423628112e-3 1.578373291550886e-3 1.598226783511691e-3
      1.618330001659037e-3 1.638686087161659e-3 1.659298220699334e-3 1.680169622959862e-3
      1.701303555142308e-3 1.722703319466575e-3 1.744372259689374e-3 1.766313761626704e-3
      1.788531253682882e-3 1.811028207386242e-3 1.833808137931572e-3 1.856874604729364e-3
      1.880231211961987e-3 1.903881609146840e-3 1.927829491706598e-3 1.952078601546637e-3
      1.976632727639699e-3 2.001495706617948e-3 2.026671423372429e-3 2.052163811660108e-3
      2.077976854718519e-3 2.104114585888153e-3 2.130581089242690e-3 2.157380500227121e-3
      2.184517006303938e-3 2.211994847607424e-3 2.239818317606186e-3 2.267991763774021e-3
      2.296519588269211e-3 2.325406248622373e-3 2.354656258432958e-3 2.384274188074507e-3
      2.414264665408788e-3 2.444632376508899e-3 2.475382066391482e-3 2.506518539758144e-3
      2.538046661746191e-3 2.569971358688835e-3 2.602297618884921e-3 2.635030493378374e-3
      2.668175096747428e-3 2.701736607903791e-3 2.735720270901867e-3 2.770131395758138e-3
      2.804975359280872e-3 2.840257605910261e-3 2.875983648569119e-3 2.912159069524303e-3
      2.948789521258934e-3 2.985880727355620e-3 3.023438483390778e-3 3.061468657840195e-3
      3.099977192996009e-3 3.138970105895183e-3 3.178453489259685e-3 3.218433512448499e-3
      3.258916422421587e-3 3.299908544715993e-3 3.341416284434229e-3 3.383446127245071e-3
      3.426004640396971e-3 3.469098473744193e-3 3.512734360785871e-3 3.556919119718138e-3
      3.601659654499469e-3 3.646962955929450e-3 3.692836102741098e-3 3.739286262706929e-3
      3.786320693758948e-3 3.833946745122697e-3 3.882171858465597e-3 3.931003569059721e-3
      3.980449506959197e-3 4.030517398192426e-3 4.081215065969274e-3 4.132550431903476e-3
      4.184531517250401e-3 4.237166444160390e-3 4.290463436947865e-3 4.344430823376378e-3
      4.399077035959856e-3 4.454410613280197e-3 4.510440201321425e-3 4.567174554820676e-3
      4.624622538636109e-3 4.682793129132069e-3 4.741695415581673e-3 4.801338601587012e-3
      4.861732006517252e-3 4.922885066964781e-3 4.984807338219711e-3 5.047508495762908e-3
      5.110998336777799e-3 5.175286781681221e-3 5.240383875673485e-3 5.306299790307966e-3
      5.373044825080435e-3 5.440629409038361e-3 5.509064102410502e-3 5.578359598256921e-3
      5.648526724139829e-3 5.719576443815402e-3 5.791519858946884e-3 5.864368210839270e-3
      5.938132882195749e-3 6.012825398896298e-3 6.088457431798611e-3 6.165040798561701e-3
      6.242587465492444e-3 6.321109549415313e-3 6.400619319565677e-3 6.481129199506883e-3
      6.562651769071465e-3 6.645199766326791e-3 6.728786089565368e-3 6.813423799320262e-3
      6.899126120405819e-3 6.985906443984064e-3 7.073778329657122e-3 7.162755507585905e-3
      7.252851880635490e-3 7.344081526547463e-3 7.436458700139602e-3 7.529997835533237e-3
      7.624713548408577e-3 7.720620638288453e-3 7.817734090850786e-3 7.916069080270114e-3
      8.015640971588606e-3 8.116465323116859e-3 8.218557888864925e-3 8.321934621003912e-3
      8.426611672358531e-3 8.532605398931040e-3 8.639932362456850e-3 8.748609332992373e-3
      8.858653291535362e-3 8.970081432678214e-3 9.082911167294704e-3 9.197160125260408e-3
      9.312846158207453e-3 9.429987342313851e-3 9.548601981127934e-3 9.668708608428357e-3
      9.790325991119991e-3 9.913473132166308e-3 1.003816927355865e-2 1.016443389932278e-2
      1.029228673856340e-2 1.042174776854673e-2 1.055283721782211e-2 1.068557556938269e-2
      1.081998356386595e-2 1.095608220279450e-2 1.109389275185756e-2 1.123343674423380e-2
      1.137473598395593e-2 1.151781254931762e-2 1.166268879632332e-2 1.180938736218138e-2
      1.195793116884116e-2 1.210834342657467e-2 1.226064763760319e-2 1.241486759976958e-2
      1.257102741025667e-2 1.272915146935257e-2 1.288926448426322e-2 1.305139147297294e-2
      1.321555776815358e-2 1.338178902112276e-2 1.355011120585194e-2 1.372055062302496e-2
      1.389313390414749e-2 1.406788801570836e-2 1.424484026339302e-2 1.442401829635019e-2
      1.460545011151205e-2 1.478916405796885e-2 1.497518884139851e-2 1.516355352855189e-2
      1.535428755179460e-2 1.554742071370582e-2 1.574298319173501e-2 1.594100554291727e-2
      1.614151870864784e-2 1.634455401951682e-2 1.655014320020459e-2 1.675831837443891e-2
      1.696911207001431e-2 1.718255722387459e-2 1.739868718725928e-2 1.761753573091487e-2
      1.783913705037157e-2 1.806352577128641e-2 1.829073695485354e-2 1.852080610328266e-2
      1.875376916534629e-2 1.898966254199683e-2 1.922852309205433e-2 1.947038813796571e-2
      1.971529547163646e-2 1.996328336033573e-2 2.021439055267566e-2 2.046865628466595e-2
      2.072612028584452e-2 2.098682278548538e-2 2.125080451888449e-2 2.151810673372476e-2
      2.178877119652112e-2 2.206284019914653e-2 2.234035656544026e-2 2.262136365789915e-2
      2.290590538445309e-2 2.319402620532579e-2 2.348577113998168e-2 2.378118577416038e-2
      2.408031626699949e-2 2.438320935824707e-2 2.468991237556492e-2 2.500047324192348e-2
      2.531494048308995e-2 2.563336323521054e-2 2.595579125248810e-2 2.628227491495635e-2
      2.661286523635176e-2 2.694761387208465e-2 2.728657312731040e-2 2.762979596510223e-2
      2.797733601472689e-2 2.832924758002418e-2 2.868558564789216e-2 2.904640589687888e-2
      2.941176470588236e-2 2.978171916295984e-2 3.015632707424792e-2 3.053564697299487e-2
      3.091973812870661e-2 3.130866055640763e-2 3.170247502601859e-2 3.210124307185152e-2
      3.250502700222495e-2 3.291388990919946e-2 3.332789567843607e-2 3.374710899917860e-2
      3.417159537436127e-2 3.460142113084386e-2 3.503665342977527e-2 3.547736027708766e-2
      3.592361053412265e-2 3.637547392839075e-2 3.683302106446662e-2 3.729632343502118e-2
      3.776545343199239e-2 3.824048435789680e-2 3.872149043728300e-2 3.920854682832951e-2
      3.970172963458835e-2 4.020111591687636e-2 4.070678370531622e-2 4.121881201152863e-2
      4.173728084097817e-2 4.226227120547427e-2 4.279386513582945e-2 4.333214569467694e-2
      4.387719698944914e-2 4.442910418551981e-2 4.498795351951117e-2 4.555383231276862e-2
      4.612682898500498e-2 4.670703306811600e-2 4.729453522017010e-2 4.788942723957385e-2
      4.849180207941553e-2 4.910175386198951e-2 4.971937789350270e-2 5.034477067896663e-2
      5.097802993727636e-2 5.161925461647937e-2 5.226854490923643e-2 5.292600226847675e-2
      5.359172942325029e-2 5.426583039477944e-2 5.494841051271242e-2 5.563957643158147e-2
      5.633943614746755e-2 5.704809901487515e-2 5.776567576381907e-2 5.849227851712623e-2
      5.922802080795520e-2 5.997301759753576e-2 6.072738529313199e-2 6.149124176623109e-2
      6.226470637096102e-2 6.304789996273998e-2 6.384094491716008e-2 6.464396514910892e-2
      6.545708613213144e-2 6.628043491803554e-2 6.711414015674423e-2 6.795833211639719e-2
      6.881314270370565e-2 6.967870548456299e-2 7.055515570491465e-2 7.144263031189084e-2
      7.234126797520444e-2 7.325120910881859e-2 7.417259589288676e-2 7.510557229596843e-2
      7.605028409752491e-2 7.700687891069712e-2 7.797550620537081e-2 7.895631733153153e-2
      7.994946554291309e-2 8.095510602094434e-2 8.197339589899563e-2 8.300449428693234e-2
      8.404856229597545e-2 8.510576306387531e-2 8.617626178040307e-2 8.726022571316083e-2
      8.835782423371858e-2 8.946922884407840e-2 9.059461320347150e-2 9.173415315549398e-2
      9.288802675558145e-2 9.405641429883161e-2 9.523949834817538e-2 9.643746376290217e-2
      9.765049772754562e-2 9.887878978113031e-2 1.001225318467888e-1 1.013819182617493e-1
      1.026571458077012e-1 1.039484137415433e-1 1.052559238265171e-1 1.065798803637336e-1
      1.079204902240955e-1 1.092779628806207e-1 1.106525104411739e-1 1.120443476816077e-1
      1.134536920793227e-1 1.148807638472487e-1 1.163257859682523e-1 1.177889842299803e-1
      1.192705872601375e-1 1.207708265622121e-1 1.222899365516474e-1 1.238281545924694e-1
      1.253857210343771e-1 1.269628792502954e-1 1.285598756744046e-1 1.301769598406452e-1
      1.318143844217078e-1 1.334724052685149e-1 1.351512814501967e-1 1.368512752945726e-1
      1.385726524291395e-1 1.403156818225766e-1 1.420806358267730e-1 1.438677902193825e-1
      1.456774242469151e-1 1.475098206683695e-1 1.493652657994142e-1 1.512440495571262e-1
      1.531464655052897e-1 1.550728109002673e-1 1.570233867374465e-1 1.589984977982696e-1
      1.609984526978590e-1 1.630235639332360e-1 1.650741479321516e-1 1.671505251025279e-1
      1.692530198825215e-1 1.713819607912200e-1 1.735376804799711e-1 1.757205157843624e-1
      1.779308077768515e-1 1.801689018200584e-1 1.824351476207315e-1 1.847298992843872e-1
      1.870535153706420e-1 1.894063589492372e-1 1.917887976567680e-1 1.942012037541304e-1
      1.966439541846845e-1 1.991174306331551e-1 2.016220195852701e-1 2.041581123881481e-1
      2.067261053114500e-1 2.093263996092940e-1 2.119594015829549e-1 2.146255226443481e-1
      2.173251793803133e-1 2.200587936177084e-1 2.228267924893191e-1 2.256296085006008e-1
      2.284676795972582e-1 2.313414492336733e-1 2.342513664421994e-1 2.371978859033199e-1
      2.401814680166955e-1 2.432025789731022e-1 2.462616908272725e-1 2.493592815716583e-1
      2.524958352111146e-1 2.556718418385295e-1 2.588877977114004e-1 2.621442053293746e-1
      2.654415735127685e-1 2.687804174820685e-1 2.721612589384379e-1 2.755846261452334e-1
      2.790510540105449e-1 2.825610841707798e-1 2.861152650752908e-1 2.897141520720759e-1
      2.933583074945508e-1 2.970483007494133e-1 3.007847084056179e-1 3.045681142844616e-1
      3.083991095508109e-1 3.122782928054709e-1 3.162062701787163e-1 3.201836554250044e-1
      3.242110700188707e-1 3.282891432520401e-1 3.324185123317526e-1 3.365998224803271e-1
      3.408337270359824e-1 3.451208875549181e-1 3.494619739146881e-1 3.538576644188688e-1
      3.583086459030433e-1 3.628156138421255e-1 3.673792724590239e-1 3.720003348346830e-1
      3.766795230195013e-1 3.814175681461510e-1 3.862152105438244e-1 3.910731998539055e-1
      3.959922951471091e-1 4.009732650420813e-1 4.060168878255028e-1 4.111239515736955e-1
      4.162952542757591e-1 4.215316039582632e-1 4.268338188114978e-1 4.322027273173218e-1
      4.376391683786133e-1 4.431439914503469e-1 4.487180566723288e-1 4.543622350035890e-1
      4.600774083584756e-1 4.658644697444539e-1 4.717243234016375e-1 4.776578849440841e-1
      4.836660815028548e-1 4.897498518708866e-1 4.959101466496779e-1 5.021479283978194e-1
      5.084641717814019e-1 5.148598637263026e-1 5.213360035724013e-1 5.278936032297253e-1
      5.345336873365608e-1 5.412572934195610e-1 5.480654720558534e-1 5.549592870372024e-1
      5.619398155362255e-1 5.690081482747004e-1 5.761653896940006e-1 5.834126581276569e-1
      5.907510859761079e-1 5.981818198836360e-1 6.057060209175305e-1 6.133248647495128e-1
      6.210395418394302e-1 6.288512576212748e-1 6.367612326915316e-1 6.447707029998963e-1
      6.528809200424019e-1 6.610931510569595e-1 6.694086792213744e-1 6.778288038538411e-1
      6.863548406159624e-1 6.949881217183309e-1 7.037299961286809e-1 7.125818297826758e-1
      7.215450057973345e-1 7.306209246871425e-1 7.398110045828941e-1 7.491166814532675e-1
      7.585394093292077e-1 7.680806605311174e-1 7.777419258989059e-1 7.875247150249458e-1
      7.974305564899384e-1 8.074609981017677e-1 8.176176071373439e-1 8.279019705874898e-1
      8.383156954049211e-1 8.488604087553245e-1 8.595377582716159e-1 8.703494123113817e-1
      8.812970602175596e-1 8.923824125824106e-1 9.036072015147923e-1 9.149731809108136e-1
      9.264821267278814e-1 9.381358372621913e-1 9.499361334297271e-1 9.618848590507698e-1
      9.739838811380091e-1 9.862350901882637e-1 9.986404004778692e-1 1.011201750361801e0
      1.023921102576531e0 1.036800444546722e0 1.049841788695762e0 1.063047172760204e0
      1.076418660108178e0 1.089958340061782e0 1.103668328223559e0 1.117550766807053e0
      1.131607824971534e0 1.145841699160942e0 1.160254613447075e0 1.174848819877116e0
      1.189626598825513e0 1.204590259350288e0 1.219742139553847e0 1.235084606948294e0
      1.250620058825376e0 1.266350922631058e0 1.282279656344809e0 1.298408748863685e0
      1.314740720391202e0 1.331278122831140e0 1.348023540186280e0 1.364979588962146e0
      1.382148918575863e0 1.399534211770109e0 1.417138185032318e0 1.434963589019131e0
      1.453013208986182e0 1.471289865223318e0 1.489796413495255e0 1.508535745487815e0
      1.527510789259750e0 1.546724509700249e0 1.566179908992226e0 1.585880027081399e0
      1.605827942151301e0 1.626026771104249e0 1.646479670048357e0 1.667189834790702e0
      1.688160501336654e0 1.709394946395529e0 1.730896487892572e0 1.752668485487382e0
      1.774714341098884e0 1.797037499436864e0 1.819641448540232e0 1.842529720322027e0
      1.865705891121275e0 1.889173582261822e0 1.912936460618147e0 1.936998239188344e0
      1.961362677674271e0 1.986033583069004e0 2.011014810251712e0 2.036310262589960e0
      2.061923892549643e0 2.087859702312557e0 2.114121744401738e0 2.140714122314698e0
      2.167640991164584e0 2.194906558329439e0 2.222515084109608e0 2.250470882393409e0
      2.278778321331205e0 2.307441824017916e0 2.336465869184157e0 2.365854991896039e0
      2.395613784263769e0 2.425746896159209e0 2.456259035942391e0 2.487154971197235e0
      2.518439529476490e0 2.550117599056026e0 2.582194129698674e0 2.614674133427598e0
      2.647562685309465e0 2.680864924247425e0 2.714586053784056e0 2.748731342914463e0
      2.783306126909534e0 2.818315808149614e0 2.853765856968631e0 2.889661812508825e0
      2.926009283586293e0 2.962813949567327e0 3.000081561255873e0 3.037817941792084e0
      3.076028987562183e0 3.114720669119824e0 3.153899032118958e0 3.193570198258517e0
      3.233740366238930e0 3.274415812730657e0 3.315602893354980e0 3.357308043677031e0
      3.399537780211402e0 3.442298701440350e0 3.485597488844804e0 3.529440907948399e0
      3.573835809374558e0 3.618789129916957e0 3.664307893623396e0 3.710399212893299e0
      3.757070289589089e0 3.804328416161440e0 3.852180976788782e0 3.900635448531078e0
      3.949699402498103e0 3.999380505032503e0 4.049686518907610e0 4.100625304540446e0
      4.152204821219912e0 4.204433128350412e0 4.257318386711210e0 4.310868859731506e0
      4.365092914781664e0 4.419999024480617e0 4.475595768019694e0 4.531891832503203e0
      4.588896014305739e0 4.646617220446690e0 4.705064469981961e0 4.764246895413187e0
      4.824173744114765e0 4.884854379778709e0 4.946298283877807e0 5.008515057147092e0
      5.071514421083951e0 5.135306219467189e0 5.199900419895072e0 5.265307115342843e0
      5.331536525739746e0 5.398598999565882e0 5.466505015469245e0 5.535265183902956e0
      5.604890248783235e0 5.675391089168135e0 5.746778720957381e0 5.819064298613698e0
      5.892259116905642e0 5.966374612672497e0 6.041422366611275e0 6.117414105086195e0
      6.194361701961022e0 6.272277180454296e0 6.351172715018062e0 6.431060633240123e0
      6.511953417770211e0 6.593863708270509e0 6.676804303390533e0 6.760788162767025e0
      6.845828409048891e0 6.931938329947606e0 7.019131380313525e0 7.107421184238141e0
      7.196821537182952e0 7.287346408135010e0 7.379009941789547e0 7.471826460760214e0
      7.565810467816910e0 7.660976648151965e0 7.757339871674684e0 7.854915195334769e0
      7.953717865475088e0 8.053763320213839e0 8.155067191856881e0 8.257645309340280e0
      8.361513700703556e0 8.466688595594217e0 8.573186427803535e0 8.681023837834479e0
      8.790217675501781e0 8.900785002564701e0 9.012743095393077e0 9.126109447666659e0
      9.240901773108654e0 9.357138008253472e0 9.474836315249309e0 9.594015084696126e0
      9.714692938519086e0 9.836888732878384e0 9.960621561115516e0 1.008591075673660e1
      1.021277589643339e1 1.034123680314202e1 1.047131354914056e1 1.060302645918523e1
      1.073639611368614e1 1.087144335192321e1 1.100818927530212e1 1.114665525065163e1
      1.128686291356213e1 1.142883417176614e1 1.157259120856166e1 1.171815648627812e1
      1.186555274978633e1 1.201480303005237e1 1.216593064773614e1 1.231895921683542e1
      1.247391264837543e1 1.263081515414512e1 1.278969125048026e1 1.295056576209409e1
      1.311346382595640e1 1.327841089522105e1 1.344543274320321e1 1.361455546740646e1
      1.378580549360050e1 1.395920957995038e1 1.413479482119733e1 1.431258865289257e1
      1.449261885568403e1 1.467491355965712e1 1.485950124873028e1 1.504641076510542e1
      1.523567131377477e1 1.542731246708413e1 1.562136416935356e1 1.581785674155640e1
      1.601682088605675e1 1.621828769140703e1 1.642228863720547e1 1.662885559901486e1
      1.683802085334329e1 1.704981708268725e1 1.726427738063850e1 1.748143525705495e1
      1.770132464329654e1 1.792397989752730e1 1.814943581008364e1 1.837772760891061e1
      1.860889096506630e1 1.884296199829532e1 1.907997728267291e1 1.931997385231941e1
      1.956298920718711e1 1.980906131891969e1 2.005822863678516e1 2.031053009368395e1
      2.056600511223194e1 2.082469361092057e1 2.108663601035411e1 2.135187323956533e1
      2.162044674241100e1 2.189239848404727e1 2.216777095748710e1 2.244660719023976e1
      2.272895075103382e1 2.301484575662519e1 2.330433687869006e1 2.359746935080526e1
      2.389428897551600e1 2.419484213149243e1 2.449917578077673e1 2.480733747612069e1
      2.511937536841622e1 2.543533821421888e1 2.575527538336606e1 2.607923686669145e1
      2.640727328383583e1 2.673943589115683e1 2.707577658973768e1 2.741634793349672e1
      2.776120313739941e1 2.811039608577287e1 2.846398134072578e1 2.882201415067366e1
      2.918455045897136e1 2.955164691265476e1 2.992336087129151e1 3.029975041594394e1
      3.068087435824424e1 3.106679224958368e1 3.145756439041806e1 3.185325183968930e1
      3.225391642436643e1 3.265962074910604e1 3.307042820603414e1 3.348640298465180e1
      3.390761008186437e1 3.433411531213781e1 3.476598531778212e1 3.520328757936422e1
      3.564609042625231e1 3.609446304729197e1 3.654847550161753e1 3.700819872959872e1
      3.747370456392512e1 3.794506574083055e1 3.842235591145773e1 3.890564965336699e1
      3.939502248218880e1 3.989055086342319e1 4.039231222438802e1 4.090038496631662e1
      4.141484847660870e1 4.193578314123449e1 4.246327035729502e1 4.299739254574116e1
      4.353823316425137e1 4.408587672027271e1 4.464040878422509e1 4.520191600287155e1
      4.577048611285753e1 4.634620795441935e1 4.692917148526615e1 4.751946779463575e1
      4.811718911752727e1 4.872242884911368e1 4.933528155933423e1 4.995584300767184e1
      5.058421015811542e1 5.122048119431050e1 5.186475553490117e1 5.251713384906374e1
      5.317771807223716e1 5.384661142205037e1 5.452391841444996e1 5.520974488003168e1
      5.590419798057590e1 5.660738622579257e1 5.731941949027573e1 5.804040903067142e1
      5.877046750306238e1 5.950970898057004e1 6.025824897117936e1 6.101620443578686e1
      6.178369380647581e1 6.256083700502202e1 6.334775546163118e1 6.414457213391322e1
      6.495141152609444e1 6.576839970847117e1 6.659566433710932e1 6.743333467378996e1
      6.828154160620755e1 6.914041766842111e1 7.001009706156253e1 7.089071567480658e1
      7.178241110660297e1 7.268532268617722e1 7.359959149530074e1 7.452536039033482e1
      7.546277402455305e1 7.641197887074267e1 7.737312324409223e1 7.834635732536565e1
      7.933183318436794e1 8.032970480370729e1 8.134012810285412e1 8.236326096250480e1
      8.339926324925038e1 8.444829684055563e1 8.551052565005376e1 8.658611565315708e1
      8.767523491299201e1 8.877805360665892e1 8.989474405182206e1 9.102548073363572e1
      9.217044033200663e1 9.332980174920165e1 9.450374613780111e1 9.569245692900378e1
      9.689611986128959e1 9.811492300944025e1 9.934905681392749e1
      </PP_R>
    <PP_RAB>
      3.352507226303369e-7 3.394676575989053e-7 3.437376350796258e-7 3.480613222651669e-7
      3.524393947404485e-7 3.568725365882017e-7 3.613614404958598e-7 3.659068078637909e-7
      3.705093489148936e-7 3.751697828055716e-7 3.798888377381018e-7 3.846672510744186e-7
      3.895057694513273e-7 3.944051488971679e-7 3.993661549499477e-7 4.043895627769551e-7
      4.094761572958835e-7 4.146267332974752e-7 4.198420955697086e-7 4.251230590235507e-7
      4.304704488202847e-7 4.358851005004460e-7 4.413678601143753e-7 4.469195843544171e-7
      4.525411406887798e-7 4.582334074970769e-7 4.639972742075788e-7 4.698336414361854e-7