<UPF version="2.0.1">
  <PP_INFO>

 This pseudopotential file has been produced using the code
 ONCVPSP  (Optimized Norm-Conservinng Vanderbilt PSeudopotential)
 scalar-relativistic version 4.0.1 06/04/2019 by D. R. Hamann
 The code is available through a link at URL www.mat-simresearch.com.
 Documentation with the package provides a full discription of the
 input data below.


 While it is not required under the terms of the GNU GPL, it is
 suggested that you cite D. R. Hamann, Phys. Rev. B 88, 085117 (2013)
 in any publication using these pseudopotentials.

    <PP_INPUTFILE>
# ATOM AND REFERENCE CONFIGURATION
# atsym  z   nc   nv     iexc    psfile
  F  9.00    1    2       4      upf
#
#   n    l    f        energy (Ha)
    1    0    2.00
    2    0    2.00
    2    1    5.00
#
# PSEUDOPOTENTIAL AND OPTIMIZATION
# lmax
    1
#
#   l,   rc,      ep,       ncon, nbas, qcut
    0   1.58478  -1.09879    5    8   8.73495
    1   1.66223  -0.40834    5    8   8.69707
#
# LOCAL POTENTIAL
# lloc, lpopt,  rc(5),   dvloc0
    4    5   0.97178      0.00000
#
# VANDERBILT-KLEINMAN-BYLANDER PROJECTORs
# l, nproj, debl
    0    2   1.51125
    1    2   1.53167
#
# MODEL CORE CHARGE
# icmod, fcfact, rcfact
    0   0.00000   0.00000
#
# LOG DERIVATIVE ANALYSIS
# epsh1, epsh2, depsh
   -5.00    3.00    0.02
#
# OUTPUT GRID
# rlmax, drl
    6.00    0.01
#
# TEST CONFIGURATIONS
# ncnf
    0
# nvcnf
#   n    l    f
    </PP_INPUTFILE>
  </PP_INFO>
  <!--                               -->
  <!-- END OF HUMAN READABLE SECTION -->
  <!--                               -->
    <PP_HEADER
       generated="Generated using ONCVPSP code by D. R. Hamann"
       author="anonymous"
       date="220519"
       comment=""
       element="F "
       pseudo_type="NC"
       relativistic="scalar"
       is_ultrasoft="F"
       is_paw="F"
       is_coulomb="F"
       has_so="F"
       has_wfc="F"
       has_gipaw="F"
       core_correction="F"
       functional="PBE"
       z_valence="    7.00"
       total_psenergy="  -4.74593304972E+01"
       rho_cutoff="   8.33000000000E+00"
       l_max="1"
       l_local="-1"
       mesh_size="   834"
       number_of_wfc="2"
       number_of_proj="4"/>
 <PP_MESH>
   <PP_R type="real"  size=" 834" columns="8">
    0.0000    0.0100    0.0200    0.0300    0.0400    0.0500    0.0600    0.0700
    0.0800    0.0900    0.1000    0.1100    0.1200    0.1300    0.1400    0.1500
    0.1600    0.1700    0.1800    0.1900    0.2000    0.2100    0.2200    0.2300
    0.2400    0.2500    0.2600    0.2700    0.2800    0.2900    0.3000    0.3100
    0.3200    0.3300    0.3400    0.3500    0.3600    0.3700    0.3800    0.3900
    0.4000    0.4100    0.4200    0.4300    0.4400    0.4500    0.4600    0.4700
    0.4800    0.4900    0.5000    0.5100    0.5200    0.5300    0.5400    0.5500
    0.5600    0.5700    0.5800    0.5900    0.6000    0.6100    0.6200    0.6300
    0.6400    0.6500    0.6600    0.6700    0.6800    0.6900    0.7000    0.7100
    0.7200    0.7300    0.7400    0.7500    0.7600    0.7700    0.7800    0.7900
    0.8000    0.8100    0.8200    0.8300    0.8400    0.8500    0.8600    0.8700
    0.8800    0.8900    0.9000    0.9100    0.9200    0.9300    0.9400    0.9500
    0.9600    0.9700    0.9800    0.9900    1.0000    1.0100    1.0200    1.0300
    1.0400    1.0500    1.0600    1.0700    1.0800    1.0900    1.1000    1.1100
    1.1200    1.1300    1.1400    1.1500    1.1600    1.1700    1.1800    1.1900
    1.2000    1.2100    1.2200    1.2300    1.2400    1.2500    1.2600    1.2700
    1.2800    1.2900    1.3000    1.3100    1.3200    1.3300    1.3400    1.3500
    1.3600    1.3700    1.3800    1.3900    1.4000    1.4100    1.4200    1.4300
    1.4400    1.4500    1.4600    1.4700    1.4800    1.4900    1.5000    1.5100
    1.5200    1.5300    1.5400    1.5500    1.5600    1.5700    1.5800    1.5900
    1.6000    1.6100    1.6200    1.6300    1.6400    1.6500    1.6600    1.6700
    1.6800    1.6900    1.7000    1.7100    1.7200    1.7300    1.7400    1.7500
    1.7600    1.7700    1.7800    1.7900    1.8000    1.8100    1.8200    1.8300
    1.8400    1.8500    1.8600    1.8700    1.8800    1.8900    1.9000    1.9100
    1.9200    1.9300    1.9400    1.9500    1.9600    1.9700    1.9800    1.9900
    2.0000    2.0100    2.0200    2.0300    2.0400    2.0500    2.0600    2.0700
    2.0800    2.0900    2.1000    2.1100    2.1200    2.1300    2.1400    2.1500
    2.1600    2.1700    2.1800    2.1900    2.2000    2.2100    2.2200    2.2300
    2.2400    2.2500    2.2600    2.2700    2.2800    2.2900    2.3000    2.3100
    2.3200    2.3300    2.3400    2.3500    2.3600    2.3700    2.3800    2.3900
    2.4000    2.4100    2.4200    2.4300    2.4400    2.4500    2.4600    2.4700
    2.4800    2.4900    2.5000    2.5100    2.5200    2.5300    2.5400    2.5500
    2.5600    2.5700    2.5800    2.5900    2.6000    2.6100    2.6200    2.6300
    2.6400    2.6500    2.6600    2.6700    2.6800    2.6900    2.7000    2.7100
    2.7200    2.7300    2.7400    2.7500    2.7600    2.7700    2.7800    2.7900
    2.8000    2.8100    2.8200    2.8300    2.8400    2.8500    2.8600    2.8700
    2.8800    2.8900    2.9000    2.9100    2.9200    2.9300    2.9400    2.9500
    2.9600    2.9700    2.9800    2.9900    3.0000    3.0100    3.0200    3.0300
    3.0400    3.0500    3.0600    3.0700    3.0800    3.0900    3.1000    3.1100
    3.1200    3.1300    3.1400    3.1500    3.1600    3.1700    3.1800    3.1900
    3.2000    3.2100    3.2200    3.2300    3.2400    3.2500    3.2600    3.2700
    3.2800    3.2900    3.3000    3.3100    3.3200    3.3300    3.3400    3.3500
    3.3600    3.3700    3.3800    3.3900    3.4000    3.4100    3.4200    3.4300
    3.4400    3.4500    3.4600    3.4700    3.4800    3.4900    3.5000    3.5100
    3.5200    3.5300    3.5400    3.5500    3.5600    3.5700    3.5800    3.5900
    3.6000    3.6100    3.6200    3.6300    3.6400    3.6500    3.6600    3.6700
    3.6800    3.6900    3.7000    3.7100    3.7200    3.7300    3.7400    3.7500
    3.7600    3.7700    3.7800    3.7900    3.8000    3.8100    3.8200    3.8300
    3.8400    3.8500    3.8600    3.8700    3.8800    3.8900    3.9000    3.9100
    3.9200    3.9300    3.9400    3.9500    3.9600    3.9700    3.9800    3.9900
    4.0000    4.0100    4.0200    4.0300    4.0400    4.0500    4.0600    4.0700
    4.0800    4.0900    4.1000    4.1100    4.1200    4.1300    4.1400    4.1500
    4.1600    4.1700    4.1800    4.1900    4.2000    4.2100    4.2200    4.2300
    4.2400    4.2500    4.2600    4.2700    4.2800    4.2900    4.3000    4.3100
    4.3200    4.3300    4.3400    4.3500    4.3600    4.3700    4.3800    4.3900
    4.4000    4.4100    4.4200    4.4300    4.4400    4.4500    4.4600    4.4700
    4.4800    4.4900    4.5000    4.5100    4.5200    4.5300    4.5400    4.5500
    4.5600    4.5700    4.5800    4.5900    4.6000    4.6100    4.6200    4.6300
    4.6400    4.6500    4.6600    4.6700    4.6800    4.6900    4.7000    4.7100
    4.7200    4.7300    4.7400    4.7500    4.7600    4.7700    4.7800    4.7900
    4.8000    4.8100    4.8200    4.8300    4.8400    4.8500    4.8600    4.8700
    4.8800    4.8900    4.9000    4.9100    4.9200    4.9300    4.9400    4.9500
    4.9600    4.9700    4.9800    4.9900    5.0000    5.0100    5.0200    5.0300
    5.0400    5.0500    5.0600    5.0700    5.0800    5.0900    5.1000    5.1100
    5.1200    5.1300    5.1400    5.1500    5.1600    5.1700    5.1800    5.1900
    5.2000    5.2100    5.2200    5.2300    5.2400    5.2500    5.2600    5.2700
    5.2800    5.2900    5.3000    5.3100    5.3200    5.3300    5.3400    5.3500
    5.3600    5.3700    5.3800    5.3900    5.4000    5.4100    5.4200    5.4300
    5.4400    5.4500    5.4600    5.4700    5.4800    5.4900    5.5000    5.5100
    5.5200    5.5300    5.5400    5.5500    5.5600    5.5700    5.5800    5.5900
    5.6000    5.6100    5.6200    5.6300    5.6400    5.6500    5.6600    5.6700
    5.6800    5.6900    5.7000    5.7100    5.7200    5.7300    5.7400    5.7500
    5.7600    5.7700    5.7800    5.7900    5.8000    5.8100    5.8200    5.8300
    5.8400    5.8500    5.8600    5.8700    5.8800    5.8900    5.9000    5.9100
    5.9200    5.9300    5.9400    5.9500    5.9600    5.9700    5.9800    5.9900
    6.0000    6.0100    6.0200    6.0300    6.0400    6.0500    6.0600    6.0700
    6.0800    6.0900    6.1000    6.1100    6.1200    6.1300    6.1400    6.1500
    6.1600    6.1700    6.1800    6.1900    6.2000    6.2100    6.2200    6.2300
    6.2400    6.2500    6.2600    6.2700    6.2800    6.2900    6.3000    6.3100
    6.3200    6.3300    6.3400    6.3500    6.3600    6.3700    6.3800    6.3900
    6.4000    6.4100    6.4200    6.4300    6.4400    6.4500    6.4600    6.4700
    6.4800    6.4900    6.5000    6.5100    6.5200    6.5300    6.5400    6.5500
    6.5600    6.5700    6.5800    6.5900    6.6000    6.6100    6.6200    6.6300
    6.6400    6.6500    6.6600    6.6700    6.6800    6.6900    6.7000    6.7100
    6.7200    6.7300    6.7400    6.7500    6.7600    6.7700    6.7800    6.7900
    6.8000    6.8100    6.8200    6.8300    6.8400    6.8500    6.8600    6.8700
    6.8800    6.8900    6.9000    6.9100    6.9200    6.9300    6.9400    6.9500
    6.9600    6.9700    6.9800    6.9900    7.0000    7.0100    7.0200    7.0300
    7.0400    7.0500    7.0600    7.0700    7.0800    7.0900    7.1000    7.1100
    7.1200    7.1300    7.1400    7.1500    7.1600    7.1700    7.1800    7.1900
    7.2000    7.2100    7.2200    7.2300    7.2400    7.2500    7.2600    7.2700
    7.2800    7.2900    7.3000    7.3100    7.3200    7.3300    7.3400    7.3500
    7.3600    7.3700    7.3800    7.3900    7.4000    7.4100    7.4200    7.4300
    7.4400    7.4500    7.4600    7.4700    7.4800    7.4900    7.5000    7.5100
    7.5200    7.5300    7.5400    7.5500    7.5600    7.5700    7.5800    7.5900
    7.6000    7.6100    7.6200    7.6300    7.6400    7.6500    7.6600    7.6700
    7.6800    7.6900    7.7000    7.7100    7.7200    7.7300    7.7400    7.7500
    7.7600    7.7700    7.7800    7.7900    7.8000    7.8100    7.8200    7.8300
    7.8400    7.8500    7.8600    7.8700    7.8800    7.8900    7.9000    7.9100
    7.9200    7.9300    7.9400    7.9500    7.9600    7.9700    7.9800    7.9900
    8.0000    8.0100    8.0200    8.0300    8.0400    8.0500    8.0600    8.0700
    8.0800    8.0900    8.1000    8.1100    8.1200    8.1300    8.1400    8.1500
    8.1600    8.1700    8.1800    8.1900    8.2000    8.2100    8.2200    8.2300
    8.2400    8.2500    8.2600    8.2700    8.2800    8.2900    8.3000    8.3100
    8.3200    8.3300
   </PP_R>
   <PP_RAB type="real"  size=" 834" columns="8">
    0.0100    0.0100    0.0100    0.0100    0.0100    0.0100    0.0100    0.0100
    0.0100    0.0100    0.0100    0.0100    0.0100    0.0100    0.0100    0.0100
    0.0100    0.0100    0.0100    0.0100    0.0100    0.0100    0.0100    0.0100
    0.0100    0.0100    0.0100    0.0100    0.0100    0.0100    0.0100    0.0100
    0.0100    0.0100    0.0100    0.0100    0.0100    0.0100    0.0100    0.0100
    0.0100    0.0100    0.0100    0.0100    0.0100    0.0100    0.0100    0.0100
    0.0100    0.0100    0.0100    0.0100    0.0100    0.0100    0.0100    0.0100
    0.0100    0.0100    0.0100    0.0100    0.0100    0.0100    0.0100    0.0100
    0.0100    0.0100    0.0100    0.0100    0.0100    0.0100    0.0100    0.0100
    0.0100    0.0100    0.0100    0.0100    0.0100    0.0100    0.0100    0.0100
    0.0100    0.0100    0.0100    0.0100    0.0100    0.0100    0.0100    0.0100
    0.0100    0.0100    0.0100    0.0100    0.0100    0.0100    0.0100    0.0100
    0.0100    0.0100    0.0100    0.0100    0.0100    0.0100    0.0100    0.0100
    0.0100    0.0100    0.0100    0.0100    0.0100    0.0100    0.0100    0.0100
    0.0100    0.0100    0.0100    0.0100    0.0100    0.0100    0.0100    0.0100
    0.0100    0.0100    0.0100    0.0100    0.0100    0.0100    0.0100    0.0100
    0.0100    0.0100    0.0100    0.0100    0.0100    0.0100    0.0100    0.0100
    0.0100    0.0100    0.0100    0.0100    0.0100    0.0100    0.0100    0.0100
    0.0100    0.0100    0.0100    0.0100    0.0100    0.0100    0.0100    0.0100
    0.0100    0.0100    0.0100    0.0100    0.0100    0.0100    0.0100    0.0100
    0.0100    0.0100    0.0100    0.0100    0.0100    0.0100    0.0100    0.0100
    0.0100    0.0100    0.0100    0.0100    0.0100    0.0100    0.0100    0.0100
    0.0100    0.0100    0.0100    0.0100    0.0100    0.0100    0.0100    0.0100
    0.0100    0.0100    0.0100    0.0100    0.0100    0.0100    0.0100    0.0100
    0.0100    0.0100    0.0100    0.0100    0.0100    0.0100    0.0100    0.0100
    0.0100    0.0100    0.0100    0.0100    0.0100    0.0100    0.0100    0.0100
    0.0100    0.0100    0.0100    0.0100    0.0100    0.0100    0.0100    0.0100
    0.0100    0.0100    0.0100    0.0100    0.0100    0.0100    0.0100    0.0100
    0.0100    0.0100    0.0100    0.0100    0.0100    0.0100    0.0100    0.0100
    0.0100    0.0100    0.0100    0.0100    0.0100    0.0100    0.0100    0.0100
    0.0100    0.0100    0.0100    0.0100    0.0100    0.0100    0.0100    0.0100
    0.0100    0.0100    0.0100    0.0100    0.0100    0.0100    0.0100    0.0100
    0.0100    0.0100    0.0100    0.0100    0.0100    0.0100    0.0100    0.0100
    0.0100    0.0100    0.0100    0.0100    0.0100    0.0100    0.0100    0.0100
    0.0100    0.0100    0.0100    0.0100    0.0100    0.0100    0.0100    0.0100
    0.0100    0.0100    0.0100    0.0100    0.0100    0.0100    0.0100    0.0100
    0.0100    0.0100    0.0100    0.0100    0.0100    0.0100    0.0100    0.0100
    0.0100    0.0100    0.0100    0.0100    0.0100    0.0100    0.0100    0.0100
    0.0100    0.0100    0.0100    0.0100    0.0100    0.0100    0.0100    0.0100
    0.0100    0.0100    0.0100    0.0100    0.0100    0.0100    0.0100    0.0100
    0.0100    0.0100    0.0100    0.0100    0.0100    0.0100    0.0100    0.0100
    0.0100    0.0100    0.0100    0.0100    0.0100    0.0100    0.0100    0.0100
    0.0100    0.0100    0.0100    0.0100    0.0100    0.0100    0.0100    0.0100
    0.0100    0.0100    0.0100    0.0100    0.0100    0.0100    0.0100    0.0100
    0.0100    0.0100    0.0100    0.0100    0.0100    0.0100    0.0100    0.0100
    0.0100    0.0100    0.0100    0.0100    0.0100    0.0100    0.0100    0.0100
    0.0100    0.0100    0.0100    0.0100    0.0100    0.0100    0.0100    0.0100
    0.0100    0.0100    0.0100    0.0100    0.0100    0.0100    0.0100    0.0100
    0.0100    0.0100    0.0100    0.0100    0.0100    0.0100    0.0100    0.0100
    0.0100    0.0100    0.0100    0.0100    0.0100    0.0100    0.0100    0.0100
    0.0100    0.0100    0.0100    0.0100    0.0100    0.0100    0.0100    0.0100
    0.0100    0.0100    0.0100    0.0100    0.0100    0.0100    0.0100    0.0100
    0.0100    0.0100    0.0100    0.0100    0.0100    0.0100    0.0100    0.0100
    0.0100    0.0100    0.0100    0.0100    0.0100    0.0100    0.0100    0.0100
    0.0100    0.0100    0.0100    0.0100    0.0100    0.0100    0.0100    0.0100
    0.0100    0.0100    0.0100    0.0100    0.0100    0.0100    0.0100    0.0100
    0.0100    0.0100    0.0100    0.0100    0.0100    0.0100    0.0100    0.0100
    0.0100    0.0100    0.0100    0.0100    0.0100    0.0100    0.0100    0.0100
    0.0100    0.0100    0.0100    0.0100    0.0100    0.0100    0.0100    0.0100
    0.0100    0.0100    0.0100    0.0100    0.0100    0.0100    0.0100    0.0100
    0.0100    0.0100    0.0100    0.0100    0.0100    0.0100    0.0100    0.0100
    0.0100    0.0100    0.0100    0.0100    0.0100    0.0100    0.0100    0.0100
    0.0100    0.0100    0.0100    0.0100    0.0100    0.0100    0.0100    0.0100
    0.0100    0.0100    0.0100    0.0100    0.0100    0.0100    0.0100    0.0100
    0.0100    0.0100    0.0100    0.0100    0.0100    0.0100    0.0100    0.0100
    0.0100    0.0100    0.0100    0.0100    0.0100    0.0100    0.0100    0.0100
    0.0100    0.0100    0.0100    0.0100    0.0100    0.0100    0.0100    0.0100
    0.0100    0.0100    0.0100    0.0100    0.0100    0.0100    0.0100    0.0100
    0.0100    0.0100    0.0100    0.0100    0.0100    0.0100    0.0100    0.0100
    0.0100    0.0100    0.0100    0.0100    0.0100    0.0100    0.0100    0.0100
    0.0100    0.0100    0.0100    0.0100    0.0100    0.0100    0.0100    0.0100
    0.0100    0.0100    0.0100    0.0100    0.0100    0.0100    0.0100    0.0100
    0.0100    0.0100    0.0100    0.0100    0.0100    0.0100    0.0100    0.0100
    0.0100    0.0100    0.0100    0.0100    0.0100    0.0100    0.0100    0.0100
    0.0100    0.0100    0.0100    0.0100    0.0100    0.0100    0.0100    0.0100
    0.0100    0.0100    0.0100    0.0100    0.0100    0.0100    0.0100    0.0100
    0.0100    0.0100    0.0100    0.0100    0.0100    0.0100    0.0100    0.0100
    0.0100    0.0100    0.0100    0.0100    0.0100    0.0100    0.0100    0.0100
    0.0100    0.0100    0.0100    0.0100    0.0100    0.0100    0.0100    0.0100
    0.0100    0.0100    0.0100    0.0100    0.0100    0.0100    0.0100    0.0100
    0.0100    0.0100    0.0100    0.0100    0.0100    0.0100    0.0100    0.0100
    0.0100    0.0100    0.0100    0.0100    0.0100    0.0100    0.0100    0.0100
    0.0100    0.0100    0.0100    0.0100    0.0100    0.0100    0.0100    0.0100
    0.0100    0.0100    0.0100    0.0100    0.0100    0.0100    0.0100    0.0100
    0.0100    0.0100    0.0100    0.0100    0.0100    0.0100    0.0100    0.0100
    0.0100    0.0100    0.0100    0.0100    0.0100    0.0100    0.0100    0.0100
    0.0100    0.0100    0.0100    0.0100    0.0100    0.0100    0.0100    0.0100
    0.0100    0.0100    0.0100    0.0100    0.0100    0.0100    0.0100    0.0100
    0.0100    0.0100    0.0100    0.0100    0.0100    0.0100    0.0100    0.0100
    0.0100    0.0100    0.0100    0.0100    0.0100    0.0100    0.0100    0.0100
    0.0100    0.0100    0.0100    0.0100    0.0100    0.0100    0.0100    0.0100
    0.0100    0.0100    0.0100    0.0100    0.0100    0.0100    0.0100    0.0100
    0.0100    0.0100    0.0100    0.0100    0.0100    0.0100    0.0100    0.0100
    0.0100    0.0100    0.0100    0.0100    0.0100    0.0100    0.0100    0.0100
    0.0100    0.0100    0.0100    0.0100    0.0100    0.0100    0.0100    0.0100
    0.0100    0.0100    0.0100    0.0100    0.0100    0.0100    0.0100    0.0100
    0.0100    0.0100    0.0100    0.0100    0.0100    0.0100    0.0100    0.0100
    0.0100    0.0100    0.0100    0.0100    0.0100    0.0100    0.0100    0.0100
    0.0100    0.0100    0.0100    0.0100    0.0100    0.0100    0.0100    0.0100
    0.0100    0.0100    0.0100    0.0100    0.0100    0.0100    0.0100    0.0100
    0.0100    0.0100    0.0100    0.0100    0.0100    0.0100    0.0100    0.0100
    0.0100    0.0100    0.0100    0.0100    0.0100    0.0100    0.0100    0.0100
    0.0100    0.0100    0.0100    0.0100    0.0100    0.0100    0.0100    0.0100
    0.0100    0.0100    0.0100    0.0100    0.0100    0.0100    0.0100    0.0100
    0.0100    0.0100
   </PP_RAB>
 </PP_MESH>
  <PP_LOCAL type="real"  size=" 834" columns="4">
   -3.1481871328E+01   -3.1536255770E+01   -3.1673706439E+01   -3.1837130148E+01
   -3.1974759296E+01   -3.2059494799E+01   -3.2086591056E+01   -3.2063399486E+01
   -3.2000993373E+01   -3.1909796287E+01   -3.1798048261E+01   -3.1671685946E+01
   -3.1534750511E+01   -3.1389897732E+01   -3.1238844120E+01   -3.1082704839E+01
   -3.0922228675E+01   -3.0757951169E+01   -3.0590288603E+01   -3.0419591987E+01
   -3.0246175481E+01   -3.0070329407E+01   -2.9892324560E+01   -2.9712412050E+01
   -2.9530821119E+01   -2.9347756249E+01   -2.9163394136E+01   -2.8977880742E+01
   -2.8791328393E+01   -2.8603812932E+01   -2.8415370919E+01   -2.8225997046E+01
   -2.8035642037E+01   -2.7844211423E+01   -2.7651565709E+01   -2.7457522455E+01
   -2.7261860752E+01   -2.7064328417E+01   -2.6864652007E+01   -2.6662549413E+01
   -2.6457744423E+01   -2.6249982329E+01   -2.6039045370E+01   -2.5824766708E+01
   -2.5607041682E+01   -2.5385835360E+01   -2.5161185789E+01   -2.4933202825E+01
   -2.4702062903E+01   -2.4468000507E+01   -2.4231297343E+01   -2.3992270339E+01
   -2.3751259516E+01   -2.3508616639E+01   -2.3264695264E+01   -2.3019842602E+01
   -2.2774393309E+01   -2.2528665178E+01   -2.2282956525E+01   -2.2037544987E+01
   -2.1792687445E+01   -2.1548620749E+01   -2.1305562982E+01   -2.1063715038E+01
   -2.0823262318E+01   -2.0584376423E+01   -2.0347216753E+01   -2.0111931935E+01
   -1.9878661076E+01   -1.9647534805E+01   -1.9418676121E+01   -1.9192201057E+01
   -1.8968219174E+01   -1.8746833904E+01   -1.8528142772E+01   -1.8312237509E+01
   -1.8099204069E+01   -1.7889122583E+01   -1.7682067254E+01   -1.7478106201E+01
   -1.7277301272E+01   -1.7079707838E+01   -1.6885374552E+01   -1.6694343112E+01
   -1.6506648002E+01   -1.6322316237E+01   -1.6141367094E+01   -1.5963811848E+01
   -1.5789653507E+01   -1.5618886543E+01   -1.5451496620E+01   -1.5287460328E+01
   -1.5126744908E+01   -1.4969307976E+01   -1.4815097246E+01   -1.4664050245E+01
   -1.4516094025E+01   -1.4371144872E+01   -1.4229108121E+01   -1.4089882522E+01
   -1.3953369433E+01   -1.3819474733E+01   -1.3688108657E+01   -1.3559185638E+01
   -1.3432624140E+01   -1.3308346511E+01   -1.3186278823E+01   -1.3066350728E+01
   -1.2948495311E+01   -1.2832648951E+01   -1.2718751184E+01   -1.2606744568E+01
   -1.2496574562E+01   -1.2388189395E+01   -1.2281539954E+01   -1.2176579668E+01
   -1.2073264396E+01   -1.1971552326E+01   -1.1871403869E+01   -1.1772781562E+01
   -1.1675649972E+01   -1.1579975595E+01   -1.1485726769E+01   -1.1392873571E+01
   -1.1301387728E+01   -1.1211242517E+01   -1.1122412666E+01   -1.1034874251E+01
   -1.0948604596E+01   -1.0863582162E+01   -1.0779786443E+01   -1.0697197847E+01
   -1.0615797591E+01   -1.0535567585E+01   -1.0456490319E+01   -1.0378548753E+01
   -1.0301726206E+01   -1.0226006259E+01   -1.0151372655E+01   -1.0077809205E+01
   -1.0005299714E+01   -9.9338279100E+00   -9.8633773795E+00   -9.7939315274E+00
   -9.7254735405E+00   -9.6579863684E+00   -9.5914527172E+00   -9.5258550563E+00
   -9.4611756380E+00   -9.3973965290E+00   -9.3344996528E+00   -9.2724668396E+00
   -9.2112798799E+00   -9.1509205972E+00   -9.0913709342E+00   -9.0326130023E+00
   -8.9746291494E+00   -8.9174020346E+00   -8.8609146916E+00   -8.8051505848E+00
   -8.7500936871E+00   -8.6957286162E+00   -8.6420406516E+00   -8.5890156479E+00
   -8.5366400826E+00   -8.4849010396E+00   -8.4337861944E+00   -8.3832837928E+00
   -8.3333826400E+00   -8.2840720352E+00   -8.2353415781E+00   -8.1871810758E+00
   -8.1395805897E+00   -8.0925304080E+00   -8.0460210423E+00   -8.0000432213E+00
   -7.9545878843E+00   -7.9096461755E+00   -7.8652094378E+00   -7.8212692080E+00
   -7.7778172106E+00   -7.7348453531E+00   -7.6923457211E+00   -7.6503105728E+00
   -7.6087323351E+00   -7.5676035983E+00   -7.5269171123E+00   -7.4866657820E+00
   -7.4468426632E+00   -7.4074409588E+00   -7.3684540148E+00   -7.3298753164E+00
   -7.2916984847E+00   -7.2539172730E+00   -7.2165255632E+00   -7.1795173629E+00
   -7.1428868020E+00   -7.1066281296E+00   -7.0707357109E+00   -7.0352040243E+00
   -7.0000276588E+00   -6.9652013111E+00   -6.9307197827E+00   -6.8965779778E+00
   -6.8627709004E+00   -6.8292936519E+00   -6.7961414291E+00   -6.7633095212E+00
   -6.7307933083E+00   -6.6985882590E+00   -6.6666899279E+00   -6.6350939541E+00
   -6.6037960589E+00   -6.5727920440E+00   -6.5420777896E+00   -6.5116492524E+00
   -6.4815024642E+00   -6.4516335298E+00   -6.4220386254E+00   -6.3927139973E+00
   -6.3636559598E+00   -6.3348608941E+00   -6.3063252464E+00   -6.2780455268E+00
   -6.2500183078E+00   -6.2222402225E+00   -6.1947079640E+00   -6.1674182835E+00
   -6.1403679885E+00   -6.1135539435E+00   -6.0869730689E+00   -6.0606223333E+00
   -6.0344987610E+00   -6.0085994293E+00   -5.9829214622E+00   -5.9574620337E+00
   -5.9322183658E+00   -5.9071877275E+00   -5.8823674334E+00   -5.8577548432E+00
   -5.8333473607E+00   -5.8091424326E+00   -5.7851375480E+00   -5.7613302371E+00
   -5.7377180707E+00   -5.7142986594E+00   -5.6910696524E+00   -5.6680287372E+00
   -5.6451736383E+00   -5.6225021172E+00   -5.6000119707E+00   -5.5777010311E+00
   -5.5555671650E+00   -5.5336082727E+00   -5.5118222875E+00   -5.4902071752E+00
   -5.4687609334E+00   -5.4474815909E+00   -5.4263672069E+00   -5.4054158706E+00
   -5.3846257008E+00   -5.3639948450E+00   -5.3435214789E+00   -5.3232038061E+00
   -5.3030400573E+00   -5.2830284899E+00   -5.2631673876E+00   -5.2434550598E+00
   -5.2238898410E+00   -5.2044700906E+00   -5.1851941923E+00   -5.1660605536E+00
   -5.1470676054E+00   -5.1282138017E+00   -5.1094976190E+00   -5.0909175558E+00
   -5.0724721327E+00   -5.0541598914E+00   -5.0359793947E+00   -5.0179292260E+00
   -5.0000079888E+00   -4.9822143066E+00   -4.9645468224E+00   -4.9470041985E+00
   -4.9295851159E+00   -4.9122882740E+00   -4.8951123906E+00   -4.8780562014E+00
   -4.8611184595E+00   -4.8442979352E+00   -4.8275934161E+00   -4.8110037060E+00
   -4.7945276255E+00   -4.7781640111E+00   -4.7619117151E+00   -4.7457696055E+00
   -4.7297365655E+00   -4.7138114933E+00   -4.6979933020E+00   -4.6822809192E+00
   -4.6666732867E+00   -4.6511693606E+00   -4.6357681106E+00   -4.6204685201E+00
   -4.6052695858E+00   -4.5901703176E+00   -4.5751697385E+00   -4.5602668839E+00
   -4.5454608020E+00   -4.5307505533E+00   -4.5161352103E+00   -4.5016138575E+00
   -4.4871855910E+00   -4.4728495188E+00   -4.4586047599E+00   -4.4444504446E+00
   -4.4303857143E+00   -4.4164097211E+00   -4.4025216280E+00   -4.3887206082E+00
   -4.3750058453E+00   -4.3613765333E+00   -4.3478318760E+00   -4.3343710870E+00
   -4.3209933899E+00   -4.3076980175E+00   -4.2944842124E+00   -4.2813512260E+00
   -4.2682983193E+00   -4.2553247620E+00   -4.2424298327E+00   -4.2296128188E+00
   -4.2168730162E+00   -4.2042097292E+00   -4.1916222706E+00   -4.1791099613E+00
   -4.1666721304E+00   -4.1543081148E+00   -4.1420172592E+00   -4.1297989164E+00
   -4.1176524463E+00   -4.1055772168E+00   -4.0935726028E+00   -4.0816379868E+00
   -4.0697727583E+00   -4.0579763138E+00   -4.0462480570E+00   -4.0345873984E+00
   -4.0229937552E+00   -4.0114665513E+00   -4.0000052172E+00   -3.9886091900E+00
   -3.9772779129E+00   -3.9660108359E+00   -3.9548074146E+00   -3.9436671113E+00
   -3.9325893940E+00   -3.9215737368E+00   -3.9106196195E+00   -3.8997265280E+00
   -3.8888939537E+00   -3.8781213936E+00   -3.8674083504E+00   -3.8567543322E+00
   -3.8461588525E+00   -3.8356214303E+00   -3.8251415895E+00   -3.8147188595E+00
   -3.8043527748E+00   -3.7940428747E+00   -3.7837887038E+00   -3.7735898113E+00
   -3.7634457515E+00   -3.7533560834E+00   -3.7433203706E+00   -3.7333381816E+00
   -3.7234090892E+00   -3.7135326709E+00   -3.7037085088E+00   -3.6939361890E+00
   -3.6842153025E+00   -3.6745454441E+00   -3.6649262131E+00   -3.6553572130E+00
   -3.6458380513E+00   -3.6363683396E+00   -3.6269476937E+00   -3.6175757333E+00
   -3.6082520817E+00   -3.5989763666E+00   -3.5897482191E+00   -3.5805672742E+00
   -3.5714331708E+00   -3.5623455513E+00   -3.5533040616E+00   -3.5443083516E+00
   -3.5353580743E+00   -3.5264528864E+00   -3.5175924480E+00   -3.5087764228E+00
   -3.5000044775E+00   -3.4912762825E+00   -3.4825915112E+00   -3.4739498404E+00
   -3.4653509500E+00   -3.4567945231E+00   -3.4482802460E+00   -3.4398078079E+00
   -3.4313769013E+00   -3.4229872214E+00   -3.4146384668E+00   -3.4063303385E+00
   -3.3980625408E+00   -3.3898347808E+00   -3.3816467682E+00   -3.3734982159E+00
   -3.3653888391E+00   -3.3573183561E+00   -3.3492864878E+00   -3.3412929576E+00
   -3.3333374917E+00   -3.3254198189E+00   -3.3175396705E+00   -3.3096967804E+00
   -3.3018908849E+00   -3.2941217229E+00   -3.2863890358E+00   -3.2786925672E+00
   -3.2710320633E+00   -3.2634072727E+00   -3.2558179460E+00   -3.2482638366E+00
   -3.2407446998E+00   -3.2332602933E+00   -3.2258103770E+00   -3.2183947132E+00
   -3.2110130661E+00   -3.2036652021E+00   -3.1963508900E+00   -3.1890699003E+00
   -3.1818220060E+00   -3.1746069819E+00   -3.1674246049E+00   -3.1602746538E+00
   -3.1531569097E+00   -3.1460711553E+00   -3.1390171755E+00   -3.1319947571E+00
   -3.1250036887E+00   -3.1180437609E+00   -3.1111147660E+00   -3.1042164982E+00
   -3.0973487537E+00   -3.0905113303E+00   -3.0837040277E+00   -3.0769266471E+00
   -3.0701789919E+00   -3.0634608669E+00   -3.0567720785E+00   -3.0501124352E+00
   -3.0434817467E+00   -3.0368798248E+00   -3.0303064825E+00   -3.0237615348E+00
   -3.0172447980E+00   -3.0107560901E+00   -3.0042952307E+00   -2.9978620409E+00
   -2.9914563433E+00   -2.9850779620E+00   -2.9787267228E+00   -2.9724024527E+00
   -2.9661049803E+00   -2.9598341357E+00   -2.9535897502E+00   -2.9473716569E+00
   -2.9411796900E+00   -2.9350136852E+00   -2.9288734795E+00   -2.9227589115E+00
   -2.9166698207E+00   -2.9106060484E+00   -2.9045674369E+00   -2.8985538300E+00
   -2.8925650727E+00   -2.8866010113E+00   -2.8806614933E+00   -2.8747463675E+00
   -2.8688554841E+00   -2.8629886942E+00   -2.8571458504E+00   -2.8513268063E+00
   -2.8455314169E+00   -2.8397595382E+00   -2.8340110273E+00   -2.8282857428E+00
   -2.8225835441E+00   -2.8169042918E+00   -2.8112478478E+00   -2.8056140748E+00
   -2.8000028370E+00   -2.7944139993E+00   -2.7888474278E+00   -2.7833029899E+00
   -2.7777805537E+00   -2.7722799885E+00   -2.7668011646E+00   -2.7613439535E+00
   -2.7559082274E+00   -2.7504938598E+00   -2.7451007250E+00   -2.7397286984E+00
   -2.7343776562E+00   -2.7290474758E+00   -2.7237380354E+00   -2.7184492142E+00
   -2.7131808923E+00   -2.7079329508E+00   -2.7027052716E+00   -2.6974977375E+00
   -2.6923102325E+00   -2.6871426411E+00   -2.6819948489E+00   -2.6768667424E+00
   -2.6717582087E+00   -2.6666691362E+00   -2.6615994138E+00   -2.6565489313E+00