<UPF version="2.0.1">
  <PP_INFO>

 This pseudopotential file has been produced using the code
 ONCVPSP  (Optimized Norm-Conservinng Vanderbilt PSeudopotential)
 scalar-relativistic version 4.0.1 06/04/2019 by D. R. Hamann
 The code is available through a link at URL www.mat-simresearch.com.
 Documentation with the package provides a full discription of the
 input data below.


 While it is not required under the terms of the GNU GPL, it is
 suggested that you cite D. R. Hamann, Phys. Rev. B 88, 085117 (2013)
 in any publication using these pseudopotentials.

    <PP_INPUTFILE>
# ATOM AND REFERENCE CONFIGURATION
# atsym  z   nc   nv     iexc    psfile
  He  2.00    0    1       4      upf
#
#   n    l    f        energy (Ha)
    1    0    2.00
#
# PSEUDOPOTENTIAL AND OPTIMIZATION
# lmax
    0
#
#   l,   rc,      ep,       ncon, nbas, qcut
    0   1.99006  -0.57931    5    8   7.17231
#
# LOCAL POTENTIAL
# lloc, lpopt,  rc(5),   dvloc0
    4    5   0.89489      0.00000
#
# VANDERBILT-KLEINMAN-BYLANDER PROJECTORs
# l, nproj, debl
    0    2   1.34022
#
# MODEL CORE CHARGE
# icmod, fcfact, rcfact
    0   0.00000   0.00000
#
# LOG DERIVATIVE ANALYSIS
# epsh1, epsh2, depsh
   -5.00    3.00    0.02
#
# OUTPUT GRID
# rlmax, drl
    6.00    0.01
#
# TEST CONFIGURATIONS
# ncnf
    0
# nvcnf
#   n    l    f
    </PP_INPUTFILE>
  </PP_INFO>
  <!--                               -->
  <!-- END OF HUMAN READABLE SECTION -->
  <!--                               -->
    <PP_HEADER
       generated="Generated using ONCVPSP code by D. R. Hamann"
       author="anonymous"
       date="220519"
       comment=""
       element="He"
       pseudo_type="NC"
       relativistic="scalar"
       is_ultrasoft="F"
       is_paw="F"
       is_coulomb="F"
       has_so="F"
       has_wfc="F"
       has_gipaw="F"
       core_correction="F"
       functional="PBE"
       z_valence="    2.00"
       total_psenergy="  -5.57985029392E+00"
       rho_cutoff="   7.27000000000E+00"
       l_max="0"
       l_local="-1"
       mesh_size="   728"
       number_of_wfc="1"
       number_of_proj="2"/>
 <PP_MESH>
   <PP_R type="real"  size=" 728" columns="8">
    0.0000    0.0100    0.0200    0.0300    0.0400    0.0500    0.0600    0.0700
    0.0800    0.0900    0.1000    0.1100    0.1200    0.1300    0.1400    0.1500
    0.1600    0.1700    0.1800    0.1900    0.2000    0.2100    0.2200    0.2300
    0.2400    0.2500    0.2600    0.2700    0.2800    0.2900    0.3000    0.3100
    0.3200    0.3300    0.3400    0.3500    0.3600    0.3700    0.3800    0.3900
    0.4000    0.4100    0.4200    0.4300    0.4400    0.4500    0.4600    0.4700
    0.4800    0.4900    0.5000    0.5100    0.5200    0.5300    0.5400    0.5500
    0.5600    0.5700    0.5800    0.5900    0.6000    0.6100    0.6200    0.6300
    0.6400    0.6500    0.6600    0.6700    0.6800    0.6900    0.7000    0.7100
    0.7200    0.7300    0.7400    0.7500    0.7600    0.7700    0.7800    0.7900
    0.8000    0.8100    0.8200    0.8300    0.8400    0.8500    0.8600    0.8700
    0.8800    0.8900    0.9000    0.9100    0.9200    0.9300    0.9400    0.9500
    0.9600    0.9700    0.9800    0.9900    1.0000    1.0100    1.0200    1.0300
    1.0400    1.0500    1.0600    1.0700    1.0800    1.0900    1.1000    1.1100
    1.1200    1.1300    1.1400    1.1500    1.1600    1.1700    1.1800    1.1900
    1.2000    1.2100    1.2200    1.2300    1.2400    1.2500    1.2600    1.2700
    1.2800    1.2900    1.3000    1.3100    1.3200    1.3300    1.3400    1.3500
    1.3600    1.3700    1.3800    1.3900    1.4000    1.4100    1.4200    1.4300
    1.4400    1.4500    1.4600    1.4700    1.4800    1.4900    1.5000    1.5100
    1.5200    1.5300    1.5400    1.5500    1.5600    1.5700    1.5800    1.5900
    1.6000    1.6100    1.6200    1.6300    1.6400    1.6500    1.6600    1.6700
    1.6800    1.6900    1.7000    1.7100    1.7200    1.7300    1.7400    1.7500
    1.7600    1.7700    1.7800    1.7900    1.8000    1.8100    1.8200    1.8300
    1.8400    1.8500    1.8600    1.8700    1.8800    1.8900    1.9000    1.9100
    1.9200    1.9300    1.9400    1.9500    1.9600    1.9700    1.9800    1.9900
    2.0000    2.0100    2.0200    2.0300    2.0400    2.0500    2.0600    2.0700
    2.0800    2.0900    2.1000    2.1100    2.1200    2.1300    2.1400    2.1500
    2.1600    2.1700    2.1800    2.1900    2.2000    2.2100    2.2200    2.2300
    2.2400    2.2500    2.2600    2.2700    2.2800    2.2900    2.3000    2.3100
    2.3200    2.3300    2.3400    2.3500    2.3600    2.3700    2.3800    2.3900
    2.4000    2.4100    2.4200    2.4300    2.4400    2.4500    2.4600    2.4700
    2.4800    2.4900    2.5000    2.5100    2.5200    2.5300    2.5400    2.5500
    2.5600    2.5700    2.5800    2.5900    2.6000    2.6100    2.6200    2.6300
    2.6400    2.6500    2.6600    2.6700    2.6800    2.6900    2.7000    2.7100
    2.7200    2.7300    2.7400    2.7500    2.7600    2.7700    2.7800    2.7900
    2.8000    2.8100    2.8200    2.8300    2.8400    2.8500    2.8600    2.8700
    2.8800    2.8900    2.9000    2.9100    2.9200    2.9300    2.9400    2.9500
    2.9600    2.9700    2.9800    2.9900    3.0000    3.0100    3.0200    3.0300
    3.0400    3.0500    3.0600    3.0700    3.0800    3.0900    3.1000    3.1100
    3.1200    3.1300    3.1400    3.1500    3.1600    3.1700    3.1800    3.1900
    3.2000    3.2100    3.2200    3.2300    3.2400    3.2500    3.2600    3.2700
    3.2800    3.2900    3.3000    3.3100    3.3200    3.3300    3.3400    3.3500
    3.3600    3.3700    3.3800    3.3900    3.4000    3.4100    3.4200    3.4300
    3.4400    3.4500    3.4600    3.4700    3.4800    3.4900    3.5000    3.5100
    3.5200    3.5300    3.5400    3.5500    3.5600    3.5700    3.5800    3.5900
    3.6000    3.6100    3.6200    3.6300    3.6400    3.6500    3.6600    3.6700
    3.6800    3.6900    3.7000    3.7100    3.7200    3.7300    3.7400    3.7500
    3.7600    3.7700    3.7800    3.7900    3.8000    3.8100    3.8200    3.8300
    3.8400    3.8500    3.8600    3.8700    3.8800    3.8900    3.9000    3.9100
    3.9200    3.9300    3.9400    3.9500    3.9600    3.9700    3.9800    3.9900
    4.0000    4.0100    4.0200    4.0300    4.0400    4.0500    4.0600    4.0700
    4.0800    4.0900    4.1000    4.1100    4.1200    4.1300    4.1400    4.1500
    4.1600    4.1700    4.1800    4.1900    4.2000    4.2100    4.2200    4.2300
    4.2400    4.2500    4.2600    4.2700    4.2800    4.2900    4.3000    4.3100
    4.3200    4.3300    4.3400    4.3500    4.3600    4.3700    4.3800    4.3900
    4.4000    4.4100    4.4200    4.4300    4.4400    4.4500    4.4600    4.4700
    4.4800    4.4900    4.5000    4.5100    4.5200    4.5300    4.5400    4.5500
    4.5600    4.5700    4.5800    4.5900    4.6000    4.6100    4.6200    4.6300
    4.6400    4.6500    4.6600    4.6700    4.6800    4.6900    4.7000    4.7100
    4.7200    4.7300    4.7400    4.7500    4.7600    4.7700    4.7800    4.7900
    4.8000    4.8100    4.8200    4.8300    4.8400    4.8500    4.8600    4.8700
    4.8800    4.8900    4.9000    4.9100    4.9200    4.9300    4.9400    4.9500
    4.9600    4.9700    4.9800    4.9900    5.0000    5.0100    5.0200    5.0300
    5.0400    5.0500    5.0600    5.0700    5.0800    5.0900    5.1000    5.1100
    5.1200    5.1300    5.1400    5.1500    5.1600    5.1700    5.1800    5.1900
    5.2000    5.2100    5.2200    5.2300    5.2400    5.2500    5.2600    5.2700
    5.2800    5.2900    5.3000    5.3100    5.3200    5.3300    5.3400    5.3500
    5.3600    5.3700    5.3800    5.3900    5.4000    5.4100    5.4200    5.4300
    5.4400    5.4500    5.4600    5.4700    5.4800    5.4900    5.5000    5.5100
    5.5200    5.5300    5.5400    5.5500    5.5600    5.5700    5.5800    5.5900
    5.6000    5.6100    5.6200    5.6300    5.6400    5.6500    5.6600    5.6700
    5.6800    5.6900    5.7000    5.7100    5.7200    5.7300    5.7400    5.7500
    5.7600    5.7700    5.7800    5.7900    5.8000    5.8100    5.8200    5.8300
    5.8400    5.8500    5.8600    5.8700    5.8800    5.8900    5.9000    5.9100
    5.9200    5.9300    5.9400    5.9500    5.9600    5.9700    5.9800    5.9900
    6.0000    6.0100    6.0200    6.0300    6.0400    6.0500    6.0600    6.0700
    6.0800    6.0900    6.1000    6.1100    6.1200    6.1300    6.1400    6.1500
    6.1600    6.1700    6.1800    6.1900    6.2000    6.2100    6.2200    6.2300
    6.2400    6.2500    6.2600    6.2700    6.2800    6.2900    6.3000    6.3100
    6.3200    6.3300    6.3400    6.3500    6.3600    6.3700    6.3800    6.3900
    6.4000    6.4100    6.4200    6.4300    6.4400    6.4500    6.4600    6.4700
    6.4800    6.4900    6.5000    6.5100    6.5200    6.5300    6.5400    6.5500
    6.5600    6.5700    6.5800    6.5900    6.6000    6.6100    6.6200    6.6300
    6.6400    6.6500    6.6600    6.6700    6.6800    6.6900    6.7000    6.7100
    6.7200    6.7300    6.7400    6.7500    6.7600    6.7700    6.7800    6.7900
    6.8000    6.8100    6.8200    6.8300    6.8400    6.8500    6.8600    6.8700
    6.8800    6.8900    6.9000    6.9100    6.9200    6.9300    6.9400    6.9500
    6.9600    6.9700    6.9800    6.9900    7.0000    7.0100    7.0200    7.0300
    7.0400    7.0500    7.0600    7.0700    7.0800    7.0900    7.1000    7.1100
    7.1200    7.1300    7.1400    7.1500    7.1600    7.1700    7.1800    7.1900
    7.2000    7.2100    7.2200    7.2300    7.2400    7.2500    7.2600    7.2700
   </PP_R>
   <PP_RAB type="real"  size=" 728" columns="8">
    0.0100    0.0100    0.0100    0.0100    0.0100    0.0100    0.0100    0.0100
    0.0100    0.0100    0.0100    0.0100    0.0100    0.0100    0.0100    0.0100
    0.0100    0.0100    0.0100    0.0100    0.0100    0.0100    0.0100    0.0100
    0.0100    0.0100    0.0100    0.0100    0.0100    0.0100    0.0100    0.0100
    0.0100    0.0100    0.0100    0.0100    0.0100    0.0100    0.0100    0.0100
    0.0100    0.0100    0.0100    0.0100    0.0100    0.0100    0.0100    0.0100
    0.0100    0.0100    0.0100    0.0100    0.0100    0.0100    0.0100    0.0100
    0.0100    0.0100    0.0100    0.0100    0.0100    0.0100    0.0100    0.0100
    0.0100    0.0100    0.0100    0.0100    0.0100    0.0100    0.0100    0.0100
    0.0100    0.0100    0.0100    0.0100    0.0100    0.0100    0.0100    0.0100
    0.0100    0.0100    0.0100    0.0100    0.0100    0.0100    0.0100    0.0100
    0.0100    0.0100    0.0100    0.0100    0.0100    0.0100    0.0100    0.0100
    0.0100    0.0100    0.0100    0.0100    0.0100    0.0100    0.0100    0.0100
    0.0100    0.0100    0.0100    0.0100    0.0100    0.0100    0.0100    0.0100
    0.0100    0.0100    0.0100    0.0100    0.0100    0.0100    0.0100    0.0100
    0.0100    0.0100    0.0100    0.0100    0.0100    0.0100    0.0100    0.0100
    0.0100    0.0100    0.0100    0.0100    0.0100    0.0100    0.0100    0.0100
    0.0100    0.0100    0.0100    0.0100    0.0100    0.0100    0.0100    0.0100
    0.0100    0.0100    0.0100    0.0100    0.0100    0.0100    0.0100    0.0100
    0.0100    0.0100    0.0100    0.0100    0.0100    0.0100    0.0100    0.0100
    0.0100    0.0100    0.0100    0.0100    0.0100    0.0100    0.0100    0.0100
    0.0100    0.0100    0.0100    0.0100    0.0100    0.0100    0.0100    0.0100
    0.0100    0.0100    0.0100    0.0100    0.0100    0.0100    0.0100    0.0100
    0.0100    0.0100    0.0100    0.0100    0.0100    0.0100    0.0100    0.0100
    0.0100    0.0100    0.0100    0.0100    0.0100    0.0100    0.0100    0.0100
    0.0100    0.0100    0.0100    0.0100    0.0100    0.0100    0.0100    0.0100
    0.0100    0.0100    0.0100    0.0100    0.0100    0.0100    0.0100    0.0100
    0.0100    0.0100    0.0100    0.0100    0.0100    0.0100    0.0100    0.0100
    0.0100    0.0100    0.0100    0.0100    0.0100    0.0100    0.0100    0.0100
    0.0100    0.0100    0.0100    0.0100    0.0100    0.0100    0.0100    0.0100
    0.0100    0.0100    0.0100    0.0100    0.0100    0.0100    0.0100    0.0100
    0.0100    0.0100    0.0100    0.0100    0.0100    0.0100    0.0100    0.0100
    0.0100    0.0100    0.0100    0.0100    0.0100    0.0100    0.0100    0.0100
    0.0100    0.0100    0.0100    0.0100    0.0100    0.0100    0.0100    0.0100
    0.0100    0.0100    0.0100    0.0100    0.0100    0.0100    0.0100    0.0100
    0.0100    0.0100    0.0100    0.0100    0.0100    0.0100    0.0100    0.0100
    0.0100    0.0100    0.0100    0.0100    0.0100    0.0100    0.0100    0.0100
    0.0100    0.0100    0.0100    0.0100    0.0100    0.0100    0.0100    0.0100
    0.0100    0.0100    0.0100    0.0100    0.0100    0.0100    0.0100    0.0100
    0.0100    0.0100    0.0100    0.0100    0.0100    0.0100    0.0100    0.0100
    0.0100    0.0100    0.0100    0.0100    0.0100    0.0100    0.0100    0.0100
    0.0100    0.0100    0.0100    0.0100    0.0100    0.0100    0.0100    0.0100
    0.0100    0.0100    0.0100    0.0100    0.0100    0.0100    0.0100    0.0100
    0.0100    0.0100    0.0100    0.0100    0.0100    0.0100    0.0100    0.0100
    0.0100    0.0100    0.0100    0.0100    0.0100    0.0100    0.0100    0.0100
    0.0100    0.0100    0.0100    0.0100    0.0100    0.0100    0.0100    0.0100
    0.0100    0.0100    0.0100    0.0100    0.0100    0.0100    0.0100    0.0100
    0.0100    0.0100    0.0100    0.0100    0.0100    0.0100    0.0100    0.0100
    0.0100    0.0100    0.0100    0.0100    0.0100    0.0100    0.0100    0.0100
    0.0100    0.0100    0.0100    0.0100    0.0100    0.0100    0.0100    0.0100
    0.0100    0.0100    0.0100    0.0100    0.0100    0.0100    0.0100    0.0100
    0.0100    0.0100    0.0100    0.0100    0.0100    0.0100    0.0100    0.0100
    0.0100    0.0100    0.0100    0.0100    0.0100    0.0100    0.0100    0.0100
    0.0100    0.0100    0.0100    0.0100    0.0100    0.0100    0.0100    0.0100
    0.0100    0.0100    0.0100    0.0100    0.0100    0.0100    0.0100    0.0100
    0.0100    0.0100    0.0100    0.0100    0.0100    0.0100    0.0100    0.0100
    0.0100    0.0100    0.0100    0.0100    0.0100    0.0100    0.0100    0.0100
    0.0100    0.0100    0.0100    0.0100    0.0100    0.0100    0.0100    0.0100
    0.0100    0.0100    0.0100    0.0100    0.0100    0.0100    0.0100    0.0100
    0.0100    0.0100    0.0100    0.0100    0.0100    0.0100    0.0100    0.0100
    0.0100    0.0100    0.0100    0.0100    0.0100    0.0100    0.0100    0.0100
    0.0100    0.0100    0.0100    0.0100    0.0100    0.0100    0.0100    0.0100
    0.0100    0.0100    0.0100    0.0100    0.0100    0.0100    0.0100    0.0100
    0.0100    0.0100    0.0100    0.0100    0.0100    0.0100    0.0100    0.0100
    0.0100    0.0100    0.0100    0.0100    0.0100    0.0100    0.0100    0.0100
    0.0100    0.0100    0.0100    0.0100    0.0100    0.0100    0.0100    0.0100
    0.0100    0.0100    0.0100    0.0100    0.0100    0.0100    0.0100    0.0100
    0.0100    0.0100    0.0100    0.0100    0.0100    0.0100    0.0100    0.0100
    0.0100    0.0100    0.0100    0.0100    0.0100    0.0100    0.0100    0.0100
    0.0100    0.0100    0.0100    0.0100    0.0100    0.0100    0.0100    0.0100
    0.0100    0.0100    0.0100    0.0100    0.0100    0.0100    0.0100    0.0100
    0.0100    0.0100    0.0100    0.0100    0.0100    0.0100    0.0100    0.0100
    0.0100    0.0100    0.0100    0.0100    0.0100    0.0100    0.0100    0.0100
    0.0100    0.0100    0.0100    0.0100    0.0100    0.0100    0.0100    0.0100
    0.0100    0.0100    0.0100    0.0100    0.0100    0.0100    0.0100    0.0100
    0.0100    0.0100    0.0100    0.0100    0.0100    0.0100    0.0100    0.0100
    0.0100    0.0100    0.0100    0.0100    0.0100    0.0100    0.0100    0.0100
    0.0100    0.0100    0.0100    0.0100    0.0100    0.0100    0.0100    0.0100
    0.0100    0.0100    0.0100    0.0100    0.0100    0.0100    0.0100    0.0100
    0.0100    0.0100    0.0100    0.0100    0.0100    0.0100    0.0100    0.0100
    0.0100    0.0100    0.0100    0.0100    0.0100    0.0100    0.0100    0.0100
    0.0100    0.0100    0.0100    0.0100    0.0100    0.0100    0.0100    0.0100
    0.0100    0.0100    0.0100    0.0100    0.0100    0.0100    0.0100    0.0100
    0.0100    0.0100    0.0100    0.0100    0.0100    0.0100    0.0100    0.0100
    0.0100    0.0100    0.0100    0.0100    0.0100    0.0100    0.0100    0.0100
    0.0100    0.0100    0.0100    0.0100    0.0100    0.0100    0.0100    0.0100
    0.0100    0.0100    0.0100    0.0100    0.0100    0.0100    0.0100    0.0100
    0.0100    0.0100    0.0100    0.0100    0.0100    0.0100    0.0100    0.0100
    0.0100    0.0100    0.0100    0.0100    0.0100    0.0100    0.0100    0.0100
    0.0100    0.0100    0.0100    0.0100    0.0100    0.0100    0.0100    0.0100
    0.0100    0.0100    0.0100    0.0100    0.0100    0.0100    0.0100    0.0100
   </PP_RAB>
 </PP_MESH>
  <PP_LOCAL type="real"  size=" 728" columns="4">
   -9.7012676644E+00   -9.6998774497E+00   -9.6957085601E+00   -9.6887671972E+00
   -9.6790635060E+00   -9.6666116191E+00   -9.6514295879E+00   -9.6335392967E+00
   -9.6129663596E+00   -9.5897400032E+00   -9.5638929368E+00   -9.5354612106E+00
   -9.5044840662E+00   -9.4710037795E+00   -9.4350654988E+00   -9.3967170798E+00
   -9.3560089200E+00   -9.3129937932E+00   -9.2677266864E+00   -9.2202646396E+00
   -9.1706665909E+00   -9.1189932267E+00   -9.0653068380E+00   -9.0096711836E+00
   -8.9521513603E+00   -8.8928136803E+00   -8.8317255555E+00   -8.7689553888E+00
   -8.7045724728E+00   -8.6386468933E+00   -8.5712494399E+00   -8.5024515213E+00
   -8.4323250849E+00   -8.3609425414E+00   -8.2883766915E+00   -8.2147006566E+00
   -8.1399878107E+00   -8.0643117147E+00   -7.9877460509E+00   -7.9103645589E+00
   -7.8322409705E+00   -7.7534489454E+00   -7.6740620049E+00   -7.5941534654E+00
   -7.5137963698E+00   -7.4330634181E+00   -7.3520268945E+00   -7.2707585947E+00
   -7.1893297486E+00   -7.1078109426E+00   -7.0262720381E+00   -6.9447820889E+00
   -6.8634092549E+00   -6.7822207141E+00   -6.7012825723E+00   -6.6206597699E+00
   -6.5404159869E+00   -6.4606135458E+00   -6.3813133121E+00   -6.3025745930E+00
   -6.2244550349E+00   -6.1470105186E+00   -6.0702950534E+00   -5.9943606700E+00
   -5.9192573128E+00   -5.8450327308E+00   -5.7717323686E+00   -5.6993992565E+00
   -5.6280739016E+00   -5.5577941781E+00   -5.4885952188E+00   -5.4205093068E+00
   -5.3535657691E+00   -5.2877908703E+00   -5.2232077080E+00   -5.1598361103E+00
   -5.0976925341E+00   -5.0367899655E+00   -4.9771378217E+00   -4.9187418541E+00
   -4.8616040538E+00   -4.8057225575E+00   -4.7510915542E+00   -4.6977011937E+00
   -4.6455374939E+00   -4.5945822487E+00   -4.5448129352E+00   -4.4962026190E+00
   -4.4487198580E+00   -4.4023286038E+00   -4.3569881150E+00   -4.3126542133E+00
   -4.2692833784E+00   -4.2268341089E+00   -4.1852668923E+00   -4.1445441601E+00
   -4.1046302420E+00   -4.0654913203E+00   -4.0270953836E+00   -3.9894121787E+00
   -3.9524131612E+00   -3.9160714439E+00   -3.8803617435E+00   -3.8452603246E+00
   -3.8107449420E+00   -3.7767947809E+00   -3.7433903957E+00   -3.7105136467E+00
   -3.6781476357E+00   -3.6462766413E+00   -3.6148860532E+00   -3.5839623062E+00
   -3.5534928152E+00   -3.5234659098E+00   -3.4938707712E+00   -3.4646973687E+00
   -3.4359364001E+00   -3.4075792318E+00   -3.3796178423E+00   -3.3520447680E+00
   -3.3248530514E+00   -3.2980361918E+00   -3.2715880991E+00   -3.2455030501E+00
   -3.2197756480E+00   -3.1944007846E+00   -3.1693736050E+00   -3.1446894755E+00
   -3.1203439537E+00   -3.0963327611E+00   -3.0726517586E+00   -3.0492969235E+00
   -3.0262643291E+00   -3.0035501255E+00   -2.9811505234E+00   -2.9590617778E+00
   -2.9372801748E+00   -2.9158020183E+00   -2.8946236189E+00   -2.8737412830E+00
   -2.8531513035E+00   -2.8328499511E+00   -2.8128334664E+00   -2.7930980525E+00
   -2.7736398690E+00   -2.7544550260E+00   -2.7355395794E+00   -2.7168895268E+00
   -2.6985008042E+00   -2.6803692835E+00   -2.6624907712E+00   -2.6448610081E+00
   -2.6274756699E+00   -2.6103303691E+00   -2.5934206581E+00   -2.5767420335E+00
   -2.5602899420E+00   -2.5440597868E+00   -2.5280469362E+00   -2.5122467329E+00
   -2.4966545044E+00   -2.4812655746E+00   -2.4660752762E+00   -2.4510789643E+00
   -2.4362720296E+00   -2.4216499132E+00   -2.4072081206E+00   -2.3929422361E+00
   -2.3788479371E+00   -2.3649210072E+00   -2.3511573496E+00   -2.3375529983E+00
   -2.3241041295E+00   -2.3108070704E+00   -2.2976583076E+00   -2.2846544929E+00
   -2.2717924483E+00   -2.2590691684E+00   -2.2464818212E+00   -2.2340277477E+00
   -2.2217044586E+00   -2.2095096299E+00   -2.1974410967E+00   -2.1854968457E+00
   -2.1736750055E+00   -2.1619738362E+00   -2.1503917181E+00   -2.1389271389E+00
   -2.1275786805E+00   -2.1163450049E+00   -2.1052248408E+00   -2.0942169690E+00
   -2.0833202069E+00   -2.0725333938E+00   -2.0618553797E+00   -2.0512850121E+00
   -2.0408211228E+00   -2.0304625170E+00   -2.0202079627E+00   -2.0100561806E+00
   -2.0000058311E+00   -1.9900554910E+00   -1.9802036770E+00   -1.9704489168E+00
   -1.9607897930E+00   -1.9512249070E+00   -1.9417528851E+00   -1.9323723818E+00
   -1.9230820771E+00   -1.9138806763E+00   -1.9047669093E+00   -1.8957395302E+00
   -1.8867973164E+00   -1.8779390685E+00   -1.8691636094E+00   -1.8604697838E+00
   -1.8518564580E+00   -1.8433225190E+00   -1.8348668744E+00   -1.8264884516E+00
   -1.8181861976E+00   -1.8099590783E+00   -1.8018060786E+00   -1.7937262012E+00
   -1.7857184667E+00   -1.7777819134E+00   -1.7699155962E+00   -1.7621185869E+00
   -1.7543899736E+00   -1.7467288602E+00   -1.7391343663E+00   -1.7316056267E+00
   -1.7241417911E+00   -1.7167420237E+00   -1.7094055032E+00   -1.7021314222E+00
   -1.6949189869E+00   -1.6877674170E+00   -1.6806759452E+00   -1.6736438171E+00
   -1.6666702910E+00   -1.6597546373E+00   -1.6528961386E+00   -1.6460940892E+00
   -1.6393477951E+00   -1.6326565735E+00   -1.6260197528E+00   -1.6194366722E+00
   -1.6129066817E+00   -1.6064291415E+00   -1.6000034223E+00   -1.5936289046E+00
   -1.5873049789E+00   -1.5810310452E+00   -1.5748065132E+00   -1.5686308014E+00
   -1.5625033380E+00   -1.5564235595E+00   -1.5503909115E+00   -1.5444048481E+00
   -1.5384648318E+00   -1.5325703332E+00   -1.5267208311E+00   -1.5209158123E+00
   -1.5151547712E+00   -1.5094372100E+00   -1.5037626382E+00   -1.4981305729E+00
   -1.4925405381E+00   -1.4869920652E+00   -1.4814846923E+00   -1.4760179644E+00
   -1.4705914332E+00   -1.4652046570E+00   -1.4598572005E+00   -1.4545486347E+00
   -1.4492785369E+00   -1.4440464905E+00   -1.4388520847E+00   -1.4336949150E+00
   -1.4285745822E+00   -1.4234906932E+00   -1.4184428602E+00   -1.4134307009E+00
   -1.4084538386E+00   -1.4035119016E+00   -1.3986045236E+00   -1.3937313434E+00
   -1.3888920047E+00   -1.3840861562E+00   -1.3793134515E+00   -1.3745735488E+00
   -1.3698661112E+00   -1.3651908062E+00   -1.3605473059E+00   -1.3559352869E+00
   -1.3513544302E+00   -1.3468044209E+00   -1.3422849484E+00   -1.3377957065E+00
   -1.3333363927E+00   -1.3289067089E+00   -1.3245063606E+00   -1.3201350574E+00
   -1.3157925126E+00   -1.3114784434E+00   -1.3071925707E+00   -1.3029346188E+00
   -1.2987043158E+00   -1.2945013933E+00   -1.2903255863E+00   -1.2861766332E+00
   -1.2820542758E+00   -1.2779582592E+00   -1.2738883318E+00   -1.2698442450E+00
   -1.2658257536E+00   -1.2618326153E+00   -1.2578645909E+00   -1.2539214443E+00
   -1.2500029421E+00   -1.2461088542E+00   -1.2422389530E+00   -1.2383930139E+00
   -1.2345708150E+00   -1.2307721371E+00   -1.2269967639E+00   -1.2232444815E+00
   -1.2195150787E+00   -1.2158083470E+00   -1.2121240801E+00   -1.2084620744E+00
   -1.2048221289E+00   -1.2012040448E+00   -1.1976076257E+00   -1.1940326777E+00
   -1.1904790089E+00   -1.1869464300E+00   -1.1834347538E+00   -1.1799437953E+00
   -1.1764733717E+00   -1.1730233024E+00   -1.1695934087E+00   -1.1661835143E+00
   -1.1627934448E+00   -1.1594230277E+00   -1.1560720926E+00   -1.1527404711E+00
   -1.1494279968E+00   -1.1461345049E+00   -1.1428598330E+00   -1.1396038199E+00
   -1.1363663069E+00   -1.1331471365E+00   -1.1299461534E+00   -1.1267632040E+00
   -1.1235981361E+00   -1.1204507996E+00   -1.1173210459E+00   -1.1142087280E+00
   -1.1111137006E+00   -1.1080358201E+00   -1.1049749444E+00   -1.1019309329E+00
   -1.0989036466E+00   -1.0958929481E+00   -1.0928987014E+00   -1.0899207720E+00
   -1.0869590269E+00   -1.0840133346E+00   -1.0810835648E+00   -1.0781695888E+00
   -1.0752712792E+00   -1.0723885102E+00   -1.0695211569E+00   -1.0666690960E+00
   -1.0638322056E+00   -1.0610103650E+00   -1.0582034546E+00   -1.0554113564E+00
   -1.0526339533E+00   -1.0498711297E+00   -1.0471227711E+00   -1.0443887642E+00
   -1.0416689968E+00   -1.0389633579E+00   -1.0362717379E+00   -1.0335940280E+00
   -1.0309301207E+00   -1.0282799094E+00   -1.0256432890E+00   -1.0230201550E+00
   -1.0204104043E+00   -1.0178139347E+00   -1.0152306451E+00   -1.0126604354E+00
   -1.0101032066E+00   -1.0075588604E+00   -1.0050272998E+00   -1.0025084287E+00
   -1.0000021520E+00   -9.9750837527E-01   -9.9502700539E-01   -9.9255794995E-01
   -9.9010111752E-01   -9.8765641755E-01   -9.8522376040E-01   -9.8280305730E-01
   -9.8039422035E-01   -9.7799716252E-01   -9.7561179762E-01   -9.7323804030E-01
   -9.7087580605E-01   -9.6852501115E-01   -9.6618557272E-01   -9.6385740866E-01
   -9.6154043767E-01   -9.5923457922E-01   -9.5693975356E-01   -9.5465588169E-01
   -9.5238288538E-01   -9.5012068713E-01   -9.4786921018E-01   -9.4562837848E-01
   -9.4339811673E-01   -9.4117835030E-01   -9.3896900529E-01   -9.3677000849E-01
   -9.3458128735E-01   -9.3240277002E-01   -9.3023438532E-01   -9.2807606271E-01
   -9.2592773232E-01   -9.2378932492E-01   -9.2166077192E-01   -9.1954200535E-01
   -9.1743295789E-01   -9.1533356281E-01   -9.1324375399E-01   -9.1116346594E-01
   -9.0909263373E-01   -9.0703119304E-01   -9.0497908013E-01   -9.0293623183E-01
   -9.0090258555E-01   -8.9887807924E-01   -8.9686265143E-01   -8.9485624118E-01
   -8.9285878812E-01   -8.9087023240E-01   -8.8889051470E-01   -8.8691957624E-01
   -8.8495735874E-01   -8.8300380444E-01   -8.8105885612E-01   -8.7912245701E-01
   -8.7719455089E-01   -8.7527508198E-01   -8.7336399504E-01   -8.7146123528E-01
   -8.6956674839E-01   -8.6768048053E-01   -8.6580237833E-01   -8.6393238889E-01
   -8.6207045975E-01   -8.6021653891E-01   -8.5837057482E-01   -8.5653251636E-01
   -8.5470231285E-01   -8.5287991405E-01   -8.5106527015E-01   -8.4925833174E-01
   -8.4745904986E-01   -8.4566737595E-01   -8.4388326184E-01   -8.4210665980E-01
   -8.4033752248E-01   -8.3857580294E-01   -8.3682145461E-01   -8.3507443134E-01
   -8.3333468733E-01   -8.3160217720E-01   -8.2987685592E-01   -8.2815867883E-01
   -8.2644760165E-01   -8.2474358047E-01   -8.2304657174E-01   -8.2135653224E-01
   -8.1967341915E-01   -8.1799718997E-01   -8.1632780254E-01   -8.1466521508E-01
   -8.1300938611E-01   -8.1136027451E-01   -8.0971783949E-01   -8.0808204058E-01
   -8.0645283764E-01   -8.0483019086E-01   -8.0321406075E-01   -8.0160440812E-01
   -8.0000119412E-01   -7.9840438018E-01   -7.9681392806E-01   -7.9522979982E-01
   -7.9365195782E-01   -7.9208036470E-01   -7.9051498343E-01   -7.8895577725E-01
   -7.8740270968E-01   -7.8585574456E-01   -7.8431484597E-01   -7.8277997831E-01
   -7.8125110624E-01   -7.7972819470E-01   -7.7821120890E-01   -7.7670011432E-01
   -7.7519487671E-01   -7.7369546208E-01   -7.7220183670E-01   -7.7071396713E-01
   -7.6923182014E-01   -7.6775536279E-01   -7.6628456237E-01   -7.6481938645E-01
   -7.6335980281E-01   -7.6190577951E-01   -7.6045728482E-01   -7.5901428729E-01
   -7.5757675566E-01   -7.5614465895E-01   -7.5471796640E-01   -7.5329664746E-01
   -7.5188067184E-01   -7.5047000947E-01   -7.4906463049E-01   -7.4766450527E-01
   -7.4626960442E-01   -7.4487989874E-01   -7.4349535927E-01   -7.4211595725E-01
   -7.4074166414E-01   -7.3937245161E-01   -7.3800829154E-01   -7.3664915602E-01
   -7.3529501733E-01   -7.3394584797E-01   -7.3260162064E-01   -7.3126230822E-01
   -7.2992788383E-01   -7.2859832074E-01   -7.2727359244E-01   -7.2595367260E-01
   -7.2463853509E-01   -7.2332815398E-01   -7.2202250349E-01   -7.2072155807E-01
   -7.1942529232E-01   -7.1813368104E-01   -7.1684669920E-01   -7.1556432197E-01
   -7.1428652467E-01   -7.1301328280E-01   -7.1174457207E-01   -7.1048036831E-01
   -7.0922064755E-01   -7.0796538600E-01   -7.0671456002E-01   -7.0546814613E-01
   -7.0422612104E-01   -7.0298846161E-01   -7.0175514485E-01   -7.0052614796E-01
   -6.9930144827E-01   -6.9808102329E-01   -6.9686485067E-01   -6.9565290824E-01
   -6.9444517395E-01   -6.9324162593E-01   -6.9204224244E-01   -6.9084700192E-01
   -6.8965588293E-01   -6.8846886420E-01   -6.8728592457E-01   -6.8610704308E-01
   -6.8493219886E-01   -6.8376137122E-01   -6.8259453958E-01   -6.8143168354E-01
   -6.8027278281E-01   -6.7911781723E-01   -6.7796676680E-01   -6.7681961166E-01
   -6.7567633204E-01   -6.7453690836E-01   -6.7340132114E-01   -6.7226955103E-01
   -6.7114157881E-01   -6.7001738541E-01   -6.6889695187E-01   -6.6778025936E-01
   -6.6666728916E-01   -6.6555802271E-01   -6.6445244154E-01   -6.6335052732E-01
   -6.6225226183E-01   -6.6115762698E-01   -6.6006660481E-01   -6.5897917745E-01
   -6.5789532716E-01   -6.5681503633E-01   -6.5573828744E-01   -6.5466506312E-01
   -6.5359534608E-01   -6.5252911915E-01   -6.5146636529E-01   -6.5040706755E-01
   -6.4935120910E-01   -6.4829877322E-01   -6.4724974329E-01   -6.4620410281E-01
   -6.4516183537E-01   -6.4412292469E-01   -6.4308735456E-01   -6.4205510891E-01
   -6.4102617175E-01   -6.4000052720E-01   -6.3897815948E-01   -6.3795905291E-01
   -6.3694319192E-01   -6.3593056102E-01   -6.3492114484E-01   -6.3391492808E-01
   -6.3291189557E-01   -6.3191203220E-01   -6.3091532299E-01   -6.2992175303E-01
   -6.2893130752E-01   -6.2794397174E-01   -6.2695973106E-01   -6.2597857096E-01