<UPF version="2.0.1">
   <PP_INFO>
         UPF file from ATOMPAW code with following input
           Tb  65
           GGA-PBE  loggrid 700 scalarrelativistic logderivrange -8 8 500
           6 5 5 4 0
           5 2 1
           4 3 8
           0 0 0
           c
           c
           c
           c
           v
           v
           c
           c
           c
           v
           c
           c
           v
           v
           3
           2.370 1.975 2.370 2.370
           n
           y
           2.0
           n
           y
           2.0
           n
           y
           2.0
           n
           VANDERBILT BESSELSHAPE
           4 0.0
           2.330
           2.330
           2.330
           2.330
           2.330
           2.330
           2.330
           2.330
           PWSCFOUT
           UPFDX  0.0125d0  UPFXMIN  -7.d0  UPFZMESH  65.0
           END
  </PP_INFO>
  <!--                               -->
  <!-- END OF HUMAN READABLE SECTION -->
  <PP_HEADER generated="Generated using ATOMPAW code"
             author="   "
             date=" 05/19/2022, 10:58:31.367"
             element="Tb"
             pseudo_type="PAW"
             relativistic="scalar"
             is_ultrasoft="T"
             is_paw="T"
             is_coulomb="F"
             has_so="F"
             has_wfc="T"
             has_gipaw="T"
             paw_as_gipaw="T"
             core_correction="T"
             functional="SLA PW PBX PBC"
             z_valence="19.000"
             l_max="3"
             l_max_rho="6"
             mesh_size="   699"
             number_of_wfc="     8"
             number_of_proj=" 8"
                                    /> 
<PP_MESH dx=" 1.2500000000000E-02" mesh="  1111" xmin="-7.0000000000000E+00" zmesh=" 6.5000000000000E+01">
 <PP_R type="real" size="  1111" columns="3">
  1.40289533162233273E-05  1.42054158256772652E-05  1.43840979602551097E-05
  1.45650276394039071E-05  1.47482331337541519E-05  1.49337430695370597E-05
  1.51215864330575182E-05  1.53117925752232520E-05  1.55043912161309314E-05
  1.56994124497100700E-05  1.58968867484251851E-05  1.60968449680372096E-05
  1.62993183524247722E-05  1.65043385384661065E-05  1.67119375609824294E-05
  1.69221478577433574E-05  1.71350022745354331E-05  1.73505340702943451E-05
  1.75687769223016549E-05  1.77897649314470431E-05  1.80135326275565297E-05
  1.82401149747878910E-05  1.84695473770938590E-05  1.87018656837540708E-05
  1.89371061949766321E-05  1.91753056675699925E-05  1.94165013206863780E-05
  1.96607308416372983E-05  1.99080323917822765E-05  2.01584446124916929E-05
  2.04120066311844834E-05  2.06687580674419520E-05  2.09287390391983657E-05
  2.11919901690094926E-05  2.14585525903999825E-05  2.17284679542904866E-05
  2.20017784355057606E-05  2.22785267393645477E-05  2.25587561083523542E-05
  2.28425103288782593E-05  2.31298337381164978E-05  2.34207712309343327E-05
  2.37153682669069282E-05  2.40136708774204962E-05  2.43157256728648773E-05
  2.46215798499163735E-05  2.49312811989124106E-05  2.52448781113188615E-05
  2.55624195872912898E-05  2.58839552433314019E-05  2.62095353200396011E-05
  2.65392106899652687E-05  2.68730328655556868E-05  2.72110540072049319E-05
  2.75533269314041513E-05  2.78999051189940792E-05  2.82508427235216476E-05
  2.86061945797015539E-05  2.89660162119842665E-05  2.93303638432319462E-05
  2.96992944035032186E-05  3.00728655389487233E-05  3.04511356208184123E-05
  3.08341637545821428E-05  3.12220097891651385E-05  3.16147343262993653E-05
  3.20123987299927602E-05  3.24150651361174475E-05  3.28227964621185866E-05
  3.32356564168454562E-05  3.36537095105059279E-05  3.40770210647464158E-05
  3.45056572228585152E-05  3.49396849601139495E-05  3.53791720942297846E-05
  3.58241872959648241E-05  3.62748000998497350E-05  3.67310809150518986E-05
  3.71931010363769793E-05  3.76609326554089730E-05  3.81346488717901317E-05
  3.86143237046430532E-05  3.91000321041362796E-05  3.95918499631953811E-05
  4.00898541293615124E-05  4.05941224167987960E-05  4.11047336184530867E-05
  4.16217675183634875E-05  4.21453049041287434E-05  4.26754275795305932E-05
  4.32122183773155785E-05  4.37557611721379645E-05  4.43061408936652775E-05
  4.48634435398487366E-05  4.54277561903607195E-05  4.59991670202009308E-05
  4.65777653134740840E-05  4.71636414773406629E-05  4.77568870561432084E-05
  4.83575947457104692E-05  4.89658584078410278E-05  4.95817730849696354E-05
  5.02054350150176650E-05  5.08369416464304934E-05  5.14763916534041863E-05
  5.21238849513032591E-05  5.27795227122728364E-05  5.34434073810469766E-05
  5.41156426909558195E-05  5.47963336801342998E-05  5.54855867079343126E-05
  5.61835094715437428E-05  5.68902110228143408E-05  5.76058017853012328E-05
  5.83303935715170436E-05  5.90640996004025196E-05  5.98070345150173888E-05
  6.05593144004535890E-05  6.13210568019737060E-05  6.20923807433778263E-05
  6.28734067456010194E-05  6.36642568455451772E-05  6.44650546151473794E-05
  6.52759251806883141E-05  6.60969952423436959E-05  6.69283930939810654E-05
  6.77702486432062542E-05  6.86226934316615597E-05  6.94858606555794815E-05
  7.03598851865949710E-05  7.12449035928191637E-05  7.21410541601786334E-05
  7.30484769140227278E-05  7.39673136410028500E-05  7.48977079112271267E-05
  7.58398051006931072E-05  7.67937524140033435E-05  7.77596989073663737E-05
  7.87377955118869432E-05  7.97281950571496109E-05  8.07310522950982208E-05
  8.17465239242165515E-05  8.27747686140126231E-05  8.38159470298111486E-05
  8.48702218578580183E-05  8.59377578307399888E-05  8.70187217531247405E-05
  8.81132825278243929E-05  8.92216111821867884E-05  9.03438808948192591E-05
  9.14802670226476031E-05  9.26309471283162856E-05  9.37961010079328879E-05
  9.49759107191615608E-05  9.61705606096701726E-05  9.73802373459345654E-05
  9.86051299424058975E-05  9.98454297910444190E-05  1.01101330691224817E-04
  1.02373028880018051E-04  1.03660723062853332E-04  1.04964614444566577E-04
  1.06284906760838955E-04  1.07621806310030928E-04  1.08975521985417312E-04
  1.10346265307826141E-04  1.11734250458690637E-04  1.13139694313514399E-04
  1.14562816475759051E-04  1.16003839311158098E-04  1.17462987982460947E-04
  1.18940490484616474E-04  1.20436577680396517E-04  1.21951483336469140E-04
  1.23485444159925555E-04  1.25038699835264776E-04  1.26611493061846612E-04
  1.28204069591812437E-04  1.29816678268485097E-04  1.31449571065251491E-04
  1.33103003124932824E-04  1.34777232799652752E-04  1.36472521691203966E-04
  1.38189134691924865E-04  1.39927340026089591E-04  1.41687409291817547E-04
  1.43469617503512724E-04  1.45274243134834022E-04  1.47101568162207752E-04
  1.48951878108887582E-04  1.50825462089566582E-04  1.52722612855554031E-04
  1.54643626840516712E-04  1.56588804206797983E-04  1.58558448892319226E-04
  1.60552868658069307E-04  1.62572375136194692E-04  1.64617283878691183E-04
  1.66687914406710017E-04  1.68784590260484427E-04  1.70907639049881625E-04
  1.73057392505594846E-04  1.75234186530975043E-04  1.77438361254517244E-04
  1.79670261083006959E-04  1.81930234755332593E-04  1.84218635396978810E-04
  1.86535820575201526E-04  1.88882152354899013E-04  1.91257997355186030E-04
  1.93663726806676887E-04  1.96099716609493351E-04  1.98566347391998044E-04
  2.01064004570268925E-04  2.03593078408322167E-04  2.06153964079089662E-04
  2.08747061726168216E-04  2.11372776526340660E-04  2.14031518752886456E-04
  2.16723703839688238E-04  2.19449752446142400E-04  2.22210090522890455E-04
  2.25005149378372645E-04  2.27835365746221520E-04  2.30701181853503352E-04
  2.33603045489814558E-04  2.36541410077252805E-04  2.39516734741262923E-04
  2.42529484382376719E-04  2.45580129748855719E-04  2.48669147510244227E-04
  2.51797020331852740E-04  2.54964236950173126E-04  2.58171292249245493E-04
  2.61418687337985922E-04  2.64706929628482832E-04  2.68036532915284851E-04
  2.71408017455679427E-04  2.74821910050985162E-04  2.78278744128866349E-04
  2.81779059826679648E-04  2.85323404075875169E-04  2.88912330687452466E-04
  2.92546400438496246E-04  2.96226181159798933E-04  2.99952247824584561E-04
  3.03725182638350485E-04  3.07545575129837361E-04  3.11414022243144484E-04
  3.15331128431003971E-04  3.19297505749226802E-04  3.23313773952338943E-04
  3.27380560590418107E-04  3.31498501107150298E-04  3.35668238939119588E-04
  3.39890425616345255E-04  3.44165720864086152E-04  3.48494792705922633E-04
  3.52878317568137414E-04  3.57316980385408861E-04  3.61811474707832419E-04
  3.66362502809290474E-04  3.70970775797182714E-04  3.75637013723539024E-04
  3.80361945697529197E-04  3.85146309999386894E-04  3.89990854195768370E-04
  3.94896335256560518E-04  3.99863519673159190E-04  4.04893183578235595E-04
  4.09986112867007449E-04  4.15143103320038214E-04  4.20364960727578007E-04
  4.25652501015470427E-04  4.31006550372643401E-04  4.36427945380201559E-04
  4.41917533142145128E-04  4.47476171417730416E-04  4.53104728755496775E-04
  4.58804084628980141E-04  4.64575129574130779E-04  4.70418765328462992E-04
  4.76335904971952179E-04  4.82327473069705972E-04  4.88394405816430007E-04
  4.94537651182708747E-04  5.00758169063129726E-04  5.07056931426267147E-04
  5.13434922466555078E-04  5.19893138758070143E-04  5.26432589410246593E-04
  5.33054296225554214E-04  5.39759293859154465E-04  5.46548629980568687E-04
  5.53423365437379512E-04  5.60384574420988240E-04  5.67433344634461810E-04
  5.74570777462486476E-04  5.81797988143462779E-04  5.89116105943764058E-04
  5.96526274334184710E-04  6.04029651168612588E-04  6.11627408864943317E-04
  6.19320734588274676E-04  6.27110830436403512E-04  6.34998913627654550E-04
  6.42986216691075686E-04  6.51073987659020275E-04  6.59263490262156711E-04
  6.67556004126928864E-04  6.75952824975498785E-04  6.84455264828208020E-04
  6.93064652208581918E-04  7.01782332350913904E-04  7.10609667410463442E-04
  7.19548036676291971E-04  7.28598836786783534E-04  7.37763481947868878E-04
  7.47043404153999624E-04  7.56440053411901246E-04  7.65954897967137610E-04
  7.75589424533528913E-04  7.85345138525452512E-04  7.95223564293067852E-04
  8.05226245360498227E-04  8.15354744667012312E-04  8.25610644811232896E-04
  8.35995548298423016E-04  8.46511077790880928E-04  8.57158876361483065E-04
  8.67940607750420723E-04  8.78857956625158352E-04  8.89912628843668950E-04
  9.01106351720977797E-04  9.12440874299057236E-04  9.23917967620122276E-04
  9.35539425003353462E-04  9.47307062325111315E-04  9.59222718302668565E-04
  9.71288254781513434E-04  9.83505557026270348E-04  9.95876534015270078E-04
  1.00840311873883620E-03  1.02108726850131748E-03  1.03393096522691940E-03
  1.04693621576938765E-03  1.06010505222557823E-03  1.07343953225297957E-03
  1.08694173939122502E-03  1.10061378338764952E-03  1.11445780052694542E-03
  1.12847595396495595E-03  1.14267043406667554E-03  1.15704345874849900E-03
  1.17159727382477419E-03  1.18633415335871878E-03  1.20125640001774109E-03
  1.21636634543324123E-03  1.23166635056493209E-03  1.24715880606974215E-03
  1.26284613267536611E-03  1.27873078155850092E-03  1.29481523472785233E-03
  1.31110200541195189E-03  1.32759363845185384E-03  1.34429271069877519E-03
  1.36120183141672782E-03  1.37832364269022643E-03  1.39566081983711612E-03
  1.41321607182659840E-03  1.43099214170251524E-03  1.44899180701194897E-03
  1.46721788023922552E-03  1.48567320924536720E-03  1.50436067771307766E-03
  1.52328320559732763E-03  1.54244374958159612E-03  1.56184530353986281E-03
  1.58149089900440679E-03  1.60138360563948697E-03  1.62152653172098981E-03
  1.64192282462209552E-03  1.66257567130506634E-03  1.68348829881921516E-03
  1.70466397480513801E-03  1.72610600800528831E-03  1.74781774878098105E-03
  1.76980258963588353E-03  1.79206396574610807E-03  1.81460535549696276E-03
  1.83743028102645572E-03  1.86054230877564153E-03  1.88394505004587601E-03
  1.90764216156309664E-03  1.93163734604918946E-03  1.95593435280054734E-03
  1.98053697827391129E-03  2.00544906667956451E-03  2.03067451058200430E-03
  2.05621725150816146E-03  2.08208128056327222E-03  2.10827063905449962E-03
  2.13478941912238892E-03  2.16164176438027973E-03  2.18883187056174901E-03
  2.21636398617620434E-03  2.24424241317272956E-03  2.27247150761225938E-03
  2.30105568034823238E-03  2.32999939771579489E-03  2.35930718222966858E-03
  2.38898361329081561E-03  2.41903332790196395E-03  2.44946102139215931E-03
  2.48027144815041352E-03  2.51146942236859074E-03  2.54305981879363952E-03
  2.57504757348926997E-03  2.60743768460723396E-03  2.64023521316829020E-03
  2.67344528385300229E-03  2.70707308580248485E-03  2.74112387342920769E-03
  2.77560296723801348E-03  2.81051575465745803E-03  2.84586769088160428E-03
  2.88166429972241608E-03  2.91791117447285113E-03  2.95461397878083419E-03
  2.99177844753421027E-03  3.02941038775683159E-03  3.06751567951592556E-03
  3.10610027684085329E-03  3.14517020865344747E-03  3.18473157971004266E-03
  3.22479057155535074E-03  3.26535344348835533E-03  3.30642653354031773E-03
  3.34801625946512310E-03  3.39012911974206129E-03  3.43277169459122811E-03
  3.47595064700170590E-03  3.51967272377265395E-03  3.56394475656752162E-03
  3.60877366298150478E-03  3.65416644762243297E-03  3.70013020320526451E-03
  3.74667211166031982E-03  3.79379944525548617E-03  3.84151956773251882E-03
  3.88983993545763797E-03  3.93876809858661678E-03  3.98831170224448611E-03
  4.03847848772011415E-03  4.08927629367579655E-03  4.14071305737205922E-03
  4.19279681590788676E-03  4.24553570747651134E-03  4.29893797263703782E-03
  4.35301195560204666E-03  4.40776610554138599E-03  4.46320897790239077E-03
  4.51934923574666067E-03  4.57619565110370385E-03  4.63375710634157407E-03
  4.69204259555475785E-03  4.75106122596953735E-03  4.81082221936698310E-03
  4.87133491352389862E-03  4.93260876367185991E-03  4.99465334397461175E-03
  5.05747834902406379E-03  5.12109359535507184E-03  5.18550902297929949E-03
  5.25073469693836808E-03  5.31678080887653098E-03  5.38365767863316098E-03
  5.45137575585521311E-03  5.51994562163002703E-03  5.58937799013863815E-03
  5.65968371032988214E-03  5.73087376761558485E-03  5.80295928558703135E-03
  5.87595152775306339E-03  5.94986189930002320E-03  6.02470194887383056E-03
  6.10048337038450721E-03  6.17721800483333507E-03  6.25491784216306631E-03
  6.33359502313136577E-03  6.41326184120782124E-03  6.49393074449485484E-03
  6.57561433767272011E-03  6.65832538396903852E-03  6.74207680715307057E-03
  6.82688169355507527E-03  6.91275329411110244E-03  6.99970502643344154E-03
  7.08775047690717031E-03  7.17690340281305645E-03  7.26717773447714890E-03
  7.35858757744744813E-03  7.45114721469788705E-03  7.54487110886009789E-03
  7.63977390448322864E-03  7.73587043032216825E-03  7.83317570165460372E-03
  7.93170492262714258E-03  8.03147348863102184E-03  8.13249698870765689E-03
  8.23479120798446644E-03  8.33837213014134229E-03  8.44325593990810121E-03
  8.54945902559340991E-03  8.65699798164547979E-03  8.76588961124497024E-03
  8.87615092893056547E-03  8.98779916325747816E-03  9.10085175948946792E-03
  9.21532638232470426E-03  9.33124091865589894E-03  9.44861348036519881E-03
  9.56746240715415988E-03  9.68780626940939082E-03  9.80966387110421278E-03
  9.93305425273680043E-03  1.00579966943053455E-02  1.01845107183205271E-02
  1.03126160928559956E-02  1.04423328346371514E-02  1.05736812121688031E-02
  1.07066817489021859E-02  1.08413552264417495E-02  1.09777226877923514E-02
  1.11158054406472716E-02  1.12556250607175664E-02  1.13972033951033544E-02
  1.15405625657074157E-02  1.16857249726918296E-02  1.18327132979780172E-02
  1.19815505087908451E-02  1.21322598612473350E-02  1.22848649039904202E-02
  1.24393894818685055E-02  1.25958577396612682E-02  1.27542941258523140E-02
  1.29147233964493451E-02  1.30771706188522845E-02  1.32416611757701277E-02
  1.34082207691870545E-02  1.35768754243783922E-02  1.37476514939771661E-02
  1.39205756620916898E-02  1.40956749484750475E-02  1.42729767127469775E-02
  1.44525086586688584E-02  1.46342988384725245E-02  1.48183756572434176E-02
  1.50047678773589724E-02  1.51935046229828008E-02  1.53846153846153855E-02
  1.55781300237020706E-02  1.57740787772989131E-02  1.59724922627973165E-02
  1.61734014827080719E-02  1.63768378295055285E-02  1.65828330905327948E-02
  1.67914194529684910E-02  1.70026295088561256E-02  1.72164962601966363E-02
  1.74330531241050218E-02  1.76523339380318840E-02  1.78743729650505147E-02
  1.80992048992106337E-02  1.83268648709593689E-02  1.85573884526304723E-02
  1.87908116640026178E-02  1.90271709779274642E-02  1.92665033260286944E-02
  1.95088461044726214E-02  1.97542371798114062E-02  2.00027148948998673E-02
  2.02543180748864932E-02  2.05090860332800551E-02  2.07670585780923705E-02
  2.10282760180584040E-02  2.12927791689346418E-02  2.15606093598765189E-02
  2.18318084398962768E-02  2.21064187844019280E-02  2.23844833018184801E-02
  2.26660454402925517E-02  2.29511491944810880E-02  2.32398391124257440E-02
  2.35321603025135349E-02  2.38281584405251254E-02  2.41278797767718323E-02
  2.44313711433222155E-02  2.47386799613197490E-02  2.50498542483924766E-02
  2.53649426261558196E-02  2.56839943278098920E-02  2.60070592058321837E-02
  2.63341877397671592E-02  2.66654310441137889E-02  2.70008408763122848E-02
  2.73404696448313646E-02  2.76843704173570654E-02  2.80325969290847708E-02
  2.83852035911154009E-02  2.87422454989572675E-02  2.91037784411349240E-02
  2.94698589079061025E-02  2.98405441000885382E-02  3.02158919379976708E-02
  3.05959610704967973E-02  3.09808108841611862E-02  3.13705015125571654E-02
  3.17650938456382689E-02  3.21646495392593421E-02  3.25692310248103800E-02
  3.29789015189716830E-02  3.33937250335914274E-02  3.38137663856877407E-02
  3.42390912075764484E-02  3.46697659571262862E-02  3.51058579281431360E-02
  3.55474352608846841E-02  3.59945669527075712E-02  3.64473228688483308E-02
  3.69057737533399696E-02  3.73699912400659792E-02  3.78400478639530913E-02
  3.83160170723051141E-02  3.87979732362792248E-02  3.92859916625065697E-02
  3.97801486048591849E-02  4.02805212763646392E-02  4.07871878612708905E-02
  4.13002275272626521E-02  4.18197204378314633E-02  4.23457477648016486E-02
  4.28783917010131035E-02  4.34177354731646106E-02  4.39638633548179308E-02
  4.45168606795655550E-02  4.50768138543646904E-02  4.56438103730379754E-02
  4.62179388299451058E-02  4.67992889338256224E-02  4.73879515218158590E-02
  4.79840185736430044E-02  4.85875832259964474E-02  4.91987397870811485E-02
  4.98175837513532768E-02  5.04442118144411283E-02  5.10787218882546371E-02
  5.17212131162835473E-02  5.23717858890895074E-02  5.30305418599919531E-02
  5.36975839609514088E-02  5.43730164186534345E-02  5.50569447707935436E-02
  5.57494758825683168E-02  5.64507179633730247E-02  5.71607805837092905E-02
  5.78797746923063738E-02  5.86078126334563451E-02  5.93450081645688146E-02
  6.00914764739454571E-02  6.08473341987781080E-02  6.16126994433742955E-02
  6.23876917976104034E-02  6.31724323556186323E-02  6.39670437347078513E-02
  6.47716500945224594E-02  6.55863771564434150E-02  6.64113522232314540E-02
  6.72467041989193298E-02  6.80925636089528830E-02  6.89490626205856022E-02
  6.98163350635308821E-02  7.06945164508721580E-02  7.15837440002379810E-02
  7.24841566552422295E-02  7.33958951071938814E-02  7.43191018170812900E-02
  7.52539210378308648E-02  7.62004988368478881E-02  7.71589831188394248E-02
  7.81295236489243372E-02  7.91122720760352588E-02  8.01073819566130857E-02
  8.11150087786013801E-02  8.21353099857412283E-02  8.31684450021717980E-02
  8.42145752573416201E-02  8.52738642112311346E-02  8.63464773798946900E-02
  8.74325823613222725E-02  8.85323488616266280E-02  8.96459487215612305E-02
  9.07735559433695133E-02  9.19153467179741751E-02  9.30714994525069228E-02
  9.42421947981844088E-02  9.54276156785364843E-02  9.66279473179871701E-02
  9.78433772707973798E-02  9.90740954503702143E-02  1.00320294158924808E-01
  1.01582168117545141E-01  1.02859914496604185E-01  1.04153732946573430E-01
  1.05463825629218189E-01  1.06790397249185168E-01  1.08133655085989239E-01
  1.09493809026399949E-01  1.10871071597237927E-01  1.12265657998582111E-01
  1.13677786137394626E-01  1.15107676661570554E-01  1.16555552994413059E-01
  1.18021641369545044E-01  1.19506170866258116E-01  1.21009373445306032E-01
  1.22531483985150472E-01  1.24072740318659613E-01  1.25633383270271487E-01
  1.27213656693622668E-01  1.28813807509650241E-01  1.30434085745175093E-01
  1.32074744571967634E-01  1.33736040346307705E-01  1.35418232649040182E-01
  1.37121584326134416E-01  1.38846361529755852E-01  1.40592833759851210E-01
  1.42361273906259828E-01  1.44151958291352855E-01  1.45965166713208083E-01
  1.47801182489330940E-01  1.49660292500921333E-01  1.51542787237701232E-01
  1.53448960843303506E-01  1.55379111161231598E-01  1.57333539781400161E-01
  1.59312552087256837E-01  1.61316457303501082E-01  1.63345568544400160E-01
  1.65400202862713147E-01  1.67480681299233047E-01  1.69587328932947756E-01
  1.71720474931836370E-01  1.73880452604301378E-01  1.76067599451248030E-01
  1.78282257218821572E-01  1.80524771951803276E-01  1.82795494047682999E-01
  1.85094778311408303E-01  1.87422984010822663E-01  1.89780474932804089E-01
  1.92167619440104825E-01  1.94584790528911117E-01  1.97032365887123723E-01
  1.99510727953371297E-01  2.02020263976769671E-01  2.04561366077427503E-01
  2.07134431307718608E-01  2.09739861714319437E-01  2.12378064401032240E-01
  2.15049451592394580E-01  2.17754440698089358E-01  2.20493454378168446E-01
  2.23266920609091146E-01  2.26075272750599104E-01  2.28918949613428457E-01
  2.31798395527873735E-01  2.34714060413218156E-01  2.37666399848031173E-01
  2.40655875141356473E-01  2.43682953404791264E-01  2.46748107625471946E-01
  2.49851816739982441E-01  2.52994565709185548E-01  2.56176845594002223E-01
  2.59399153632139223E-01  2.62661993315782494E-01  2.65965874470271757E-01
  2.69311313333758295E-01  2.72698832637871424E-01  2.76128961689394714E-01
  2.79602236452970276E-01  2.83119199634847274E-01  2.86680400767677201E-01
  2.90286396296382809E-01  2.93937749665102610E-01  2.97635031405227957E-01
  3.01378819224554173E-01  3.05169698097543574E-01  3.09008260356733344E-01
  3.12895105785286565E-01  3.16830841710708244E-01  3.20816083099745131E-01
  3.24851452654471184E-01  3.28937580909589911E-01  3.33075106330954995E-01
  3.37264675415330339E-01  3.41506942791410195E-01  3.45802571322101904E-01
  3.50152232208103542E-01  3.54556605092778476E-01  3.59016378168349581E-01
  3.63532248283434611E-01  3.68104921051925382E-01  3.72735110963245853E-01
  3.77423541493990378E-01  3.82170945220966896E-01  3.86978063935667638E-01
  3.91845648760170695E-01  3.96774460264508633E-01  4.01765268585507596E-01
  4.06818853547120052E-01  4.11936004782279319E-01  4.17117521856275486E-01
  4.22364214391693804E-01  4.27676902194918329E-01  4.33056415384225457E-01
  4.38503594519497220E-01  4.44019290733554395E-01  4.49604365865152955E-01
  4.55259692593645848E-01  4.60986154575338869E-01  4.66784646581568596E-01
  4.72656074638506674E-01  4.78601356168733227E-01  4.84621420134584091E-01
  4.90717207183299975E-01  4.96889669794011113E-01  5.03139772426556497E-01
  5.09468491672189439E-01  5.15876816406168670E-01  5.22365747942270087E-01
  5.28936300189249642E-01  5.35589499809262293E-01  5.42326386378285230E-01
  5.49148012548552500E-01  5.56055444213029770E-01  5.63049760671969768E-01
  5.70132054801547605E-01  5.77303433224630846E-01  5.84565016483689304E-01
  5.91917939215878985E-01  5.99363350330338829E-01  6.06902413187700773E-01
  6.14536305781875902E-01  6.22266220924114322E-01  6.30093366429381518E-01
  6.38018965305089503E-01  6.46044255942184731E-01  6.54170492308658202E-01
  6.62398944145476287E-01  6.70730897164977025E-01  6.79167653251773640E-01
  6.87710530666167053E-01  6.96360864250134881E-01  7.05120005635900271E-01
  7.13989323457122738E-01  7.22970203562759206E-01  7.32064049233595471E-01
  7.41272281401520239E-01  7.50596338871545532E-01  7.60037678546618301E-01
  7.69597775655274097E-01  7.79278123982133364E-01  7.89080236101318500E-01
  7.99005643612792138E-01  8.09055897381668498E-01  8.19232567780549203E-01
  8.29537244934885676E-01  8.39971538971449827E-01  8.50537080269915147E-01
  8.61235519717602371E-01  8.72068528967444134E-01  8.83037800699172926E-01
  8.94145048883815186E-01  9.05392009051499413E-01  9.16780438562630584E-01
  9.28312116882493155E-01  9.39988845859282662E-01  9.51812450005659727E-01
  9.63784776783829455E-01  9.75907696894205312E-01  9.88183104567722292E-01
  1.00061291786180018E+00  1.01319907896005690E+00  1.02594355447577246E+00
  1.03884833575917157E+00  1.05191543920858810E+00  1.06514690658551769E+00
  1.07854480533365926E+00  1.09211122890195278E+00  1.10584829707167809E+00
  1.11975815628768838E+00  1.13384297999378214E+00  1.14810496897232173E+00
  1.16254635168810272E+00  1.17716938463655207E+00  1.19197635269632252E+00
  1.20696956948629475E+00  1.22215137772709737E+00  1.23752414960715873E+00
  1.25309028715335602E+00  1.26885222260635566E+00  1.28481241880063490E+00
  1.30097336954932308E+00  1.31733760003385636E+00  1.33390766719853704E+00
  1.35068616015007570E+00  1.36767570056212806E+00  1.38487894308495085E+00
  1.40229857576019157E+00  1.41993732044089049E+00  1.43779793321679605E+00
  1.45588320484498701E+00  1.47419596118595186E+00  1.49273906364512987E+00
  1.51151540962000097E+00  1.53052793295282985E+00  1.54977960438906348E+00
  1.56927343204153380E+00  1.58901246186047462E+00  1.60899977810944961E+00
  1.62923850384729274E+00  1.64973180141607023E+00  1.67048287293522457E+00
  1.69149496080190165E+00  1.71277134819757459E+00  1.73431535960106653E+00
  1.75613036130798528E+00  1.77821976195673326E+00  1.80058701306110636E+00
  1.82323560954958985E+00  1.84616909031147003E+00  1.86939103874976875E+00
  1.89290508334117757E+00  1.91671489820300689E+00  1.94082420366726427E+00
  1.96523676686198501E+00  1.98995640229983040E+00  2.01498697247413228E+00
  2.04033238846241005E+00  2.06599661053746964E+00  2.09198364878623266E+00
  2.11829756373628797E+00  2.14494246699038715E+00  2.17192252186887691E+00
  2.19924194406021556E+00  2.22690500227970967E+00  2.25491601893647964E+00
  2.28327937080887056E+00  2.31199948972832292E+00  2.34108086327184051E+00
  2.37052803546321389E+00  2.40034560748300185E+00  2.43053823838749938E+00
  2.46111064583671801E+00  2.49206760683151307E+00  2.52341395846003058E+00
  2.55515459865347871E+00  2.58729448695146846E+00  2.61983864527694088E+00
  2.65279215872083585E+00  2.68616017633668402E+00  2.71994791194511443E+00
  2.75416064494856405E+00  2.78880372115617492E+00  2.82388255361907659E+00
  2.85940262347622021E+00  2.89536948081077661E+00  2.93178874551738433E+00
  2.96866610818025523E+00  3.00600733096232231E+00  3.04381824850562666E+00
  3.08210476884295126E+00  3.12087287432099814E+00  3.16012862253512861E+00
  3.19987814727585596E+00  3.24012765948730364E+00  3.28088344823763167E+00
  3.32215188170175546E+00  3.36393940815637205E+00  3.40625255698749507E+00
  3.44909793971072753E+00  3.49248225100427856E+00  3.53641226975505907E+00
  3.58089486011788116E+00  3.62593697258797887E+00  3.67154564508707493E+00
  3.71772800406302739E+00  3.76449126560339042E+00  3.81184273656292794E+00
  3.85978981570530122E+00  3.90833999485918904E+00  3.95750086008884550E+00
  4.00728009287948872E+00  4.05768547133752655E+00  4.10872487140587950E+00
  4.16040626809466119E+00  4.21273773672723895E+00  4.26572745420206090E+00
  4.31938370027030061E+00  4.37371485882955291E+00  4.42872941923389796E+00
  4.48443597762031043E+00  4.54084323825188108E+00  4.59796001487785500E+00
  4.65579523211076651E+00  4.71435792682099386E+00  4.77365724954871418E+00
  4.83370246593375708E+00  4.89450295816335501E+00  4.95606822643810041E+00
  5.01840789045643554E+00  5.08153169091767509E+00  5.14544949104407756E+00
  5.21017127812196268E+00  5.27570716506222137E+00  5.34206739198053970E+00
  5.40926232779736615E+00  5.47730247185814001E+00  5.54619845557381108E+00
  5.61596104408198293E+00  5.68660113792906508E+00  5.75812977477341814E+00
  5.83055813111008536E+00  5.90389752401711121E+00  5.97815941292382735E+00
  6.05335540140148431E+00  6.12949723897624565E+00  6.20659682296515580E+00
  6.28466620033508505E+00  6.36371756958505852E+00  6.44376328265237408E+00
  6.52481584684253146E+00  6.60688792678359871E+00  6.68999234640505591E+00
  6.77414209094152220E+00  6.85935030896180820E+00  6.94563031442331535E+00
  7.03299558875244557E+00  7.12145978295106996E+00  7.21103671972949201E+00
  7.30174039566635269E+00  7.39358498339552828E+00  7.48658483382072681E+00
  7.58075447835779670E+00  7.67610863120526243E+00  7.77266219164353078E+00
  7.87043024636283395E+00  7.96942807182064605E+00  8.06967113662862268E+00
  8.17117510396955637E+00  8.27395583404488377E+00  8.37802938655276108E+00
  8.48341202319751986E+00  8.59012021023055361E+00  8.69817062102315752E+00
  8.80758013867187550E+00  8.91836585863640607E+00  9.03054509141090556E+00
  9.14413536522874182E+00  9.25915442880126527E+00  9.37562025409120103E+00
  9.49355103912067122E+00  9.61296521081478339E+00  9.73388142788083144E+00
  9.85631858372370573E+00  9.98029580939813776E+00  1.01058324765978433E+01
  1.02329482006824897E+01  1.03616628437426073E+01  1.04919965177030079E+01
  1.06239695874654512E+01  1.07576026740905508E+01  1.08929166580199901E+01
  1.10299326823390746E+01  1.11686721560803282E+01  1.13091567575688288E+01
  1.14514084378093379E+01  1.15954494239163282E+01  1.17413022225869490E+01
  1.18889896236176913E+01  1.20385347034654853E+01  1.21899608288532626E+01
  1.23432916604212153E+01  1.24985511564237530E+01  1.26557635764729604E+01
  1.28149534853293652E+01  1.29761457567400544E+01  1.31393655773254086E+01
  1.33046384505144886E+01  1.34719902005299375E+01  1.36414469764232180E+01
  1.38130352561602816E+01  1.39867818507589590E+01  1.41627139084781692E+01
  1.43408589190598210E+01  1.45212447180243043E+01  1.47038994910196550E+01
  1.48888517782257939E+01