<UPF version="2.0.1">
  <PP_INFO>
Generated using Vanderbilt code, version   7  3  6
Author: kfg        Generation date:    8    4   15
Automatically converted from original USPP format to UPF.v1.

Futher converted to UPF.v2 format.
Convert Q_IJ to Q_IJL use the same routine as 'upflib/upf_to_internal.f90' of QE.
The conversion is done by using PseudoPotentialIO.jl package.
Converted by: JYU on 2024-04-30

0        The Pseudo was generated with a Non-Relativistic Calculation
1.25000000000E+00    Local Potential cutoff radius
nl pn  l   occ               Rcut            Rcut US             E pseu
2S  2  0  2.00      0.00000000000      1.25000000000     -0.69372926500
2P  2  1  1.00      0.00000000000      1.25000000000     -0.26523638500
</PP_INFO>
  <PP_HEADER element="B" pseudo_type="US" relativistic="scalar" is_ultrasoft="T" is_paw="F" is_coulomb="F" has_so="F" has_wfc="F" has_gipaw="F" core_correction="T" functional="PBE" z_valence="3.0" total_psenergy="-5.90005357258" wfc_cutoff="0.0" rho_cutoff="0.0" l_max="1" mesh_size="781" number_of_wfc="2" number_of_proj="4"/>
  <PP_MESH>
    <PP_R>
0.00000000000000E+00 3.06507791728000E-06 6.18166854669000E-06 9.35063762790000E-06 
1.25728654505000E-05 1.58492470984000E-05 1.91806926988000E-05 2.25681276746000E-05 
2.60124930018000E-05 2.95147454706000E-05 3.30758579515000E-05 3.66968196654000E-05 
4.03786364581000E-05 4.41223310802000E-05 4.79289434710000E-05 5.17995310473000E-05 
5.57351689972000E-05 5.97369505788000E-05 6.38059874238000E-05 6.79434098463000E-05 
7.21503671571000E-05 7.64280279823000E-05 8.07775805886000E-05 8.52002332130000E-05 
8.96972143987000E-05 9.42697733359000E-05 9.89191802093000E-05 1.03646726551000E-04 
1.08453725598000E-04 1.13341512659000E-04 1.18311445485000E-04 1.23364904643000E-04 
1.28503293906000E-04 1.33728040636000E-04 1.39040596186000E-04 1.44442436300000E-04 
1.49935061524000E-04 1.55519997622000E-04 1.61198796001000E-04 1.66973034141000E-04 
1.72844316036000E-04 1.78814272634000E-04 1.84884562295000E-04 1.91056871249000E-04 
1.97332914067000E-04 2.03714434135000E-04 2.10203204136000E-04 2.16801026551000E-04 
2.23509734148000E-04 2.30331190502000E-04 2.37267290505000E-04 2.44319960897000E-04 
2.51491160797000E-04 2.58782882252000E-04 2.66197150786000E-04 2.73736025968000E-04 
2.81401601976000E-04 2.89196008187000E-04 2.97121409764000E-04 3.05180008259000E-04 
3.13374042222000E-04 3.21705787828000E-04 3.30177559502000E-04 3.38791710571000E-04 
3.47550633908000E-04 3.56456762605000E-04 3.65512570643000E-04 3.74720573583000E-04 
3.84083329262000E-04 3.93603438507000E-04 4.03283545853000E-04 4.13126340281000E-04 
4.23134555964000E-04 4.33310973027000E-04 4.43658418317000E-04 4.54179766191000E-04 
4.64877939314000E-04 4.75755909468000E-04 4.86816698383000E-04 4.98063378571000E-04 
5.09499074182000E-04 5.21126961872000E-04 5.32950271683000E-04 5.44972287946000E-04 
5.57196350186000E-04 5.69625854054000E-04 5.82264252271000E-04 5.95115055584000E-04 
6.08181833744000E-04 6.21468216494000E-04 6.34977894582000E-04 6.48714620784000E-04 
6.62682210944000E-04 6.76884545040000E-04 6.91325568254000E-04 7.06009292076000E-04 
7.20939795412000E-04 7.36121225719000E-04 7.51557800160000E-04 7.67253806771000E-04 
7.83213605655000E-04 7.99441630192000E-04 8.15942388271000E-04 8.32720463542000E-04 
8.49780516689000E-04 8.67127286725000E-04 8.84765592310000E-04 9.02700333086000E-04 
9.20936491041000E-04 9.39479131892000E-04 9.58333406491000E-04 9.77504552258000E-04 
9.96997894634000E-04 1.01681884856000E-03 1.03697291999000E-03 1.05746570740000E-03 
1.07830290337000E-03 1.09949029614000E-03 1.12103377123000E-03 1.14293931308000E-03 
1.16521300671000E-03 1.18786103938000E-03 1.21088970238000E-03 1.23430539270000E-03 
1.25811461484000E-03 1.28232398264000E-03 1.30694022107000E-03 1.33197016814000E-03 
1.35742077677000E-03 1.38329911673000E-03 1.40961237663000E-03 1.43636786587000E-03 
1.46357301669000E-03 1.49123538627000E-03 1.51936265878000E-03 1.54796264751000E-03 
1.57704329711000E-03 1.60661268571000E-03 1.63667902723000E-03 1.66725067361000E-03 
1.69833611719000E-03 1.72994399300000E-03 1.76208308121000E-03 1.79476230956000E-03 
1.82799075582000E-03 1.86177765032000E-03 1.89613237853000E-03 1.93106448366000E-03 
1.96658366929000E-03 2.00269980208000E-03 2.03942291454000E-03 2.07676320775000E-03 
2.11473105427000E-03 2.15333700097000E-03 2.19259177196000E-03 2.23250627160000E-03 
2.27309158750000E-03 2.31435899364000E-03 2.35631995343000E-03 2.39898612299000E-03 
2.44236935428000E-03 2.48648169849000E-03 2.53133540933000E-03 2.57694294645000E-03 
2.62331697892000E-03 2.67047038869000E-03 2.71841627425000E-03 2.76716795419000E-03 
2.81673897098000E-03 2.86714309466000E-03 2.91839432669000E-03 2.97050690386000E-03 
3.02349530222000E-03 3.07737424111000E-03 3.13215868724000E-03 3.18786385888000E-03 
3.24450523003000E-03 3.30209853479000E-03 3.36065977165000E-03 3.42020520800000E-03 
3.48075138464000E-03 3.54231512032000E-03 3.60491351648000E-03 3.66856396197000E-03 
3.73328413787000E-03 3.79909202244000E-03 3.86600589605000E-03 3.93404434633000E-03 
4.00322627329000E-03 4.07357089456000E-03 4.14509775079000E-03 4.21782671099000E-03 
4.29177797812000E-03 4.36697209468000E-03 4.44342994841000E-03 4.52117277809000E-03 
4.60022217945000E-03 4.68060011117000E-03 4.76232890096000E-03 4.84543125179000E-03 
4.92993024819000E-03 5.01584936264000E-03 5.10321246211000E-03 5.19204381470000E-03 
5.28236809635000E-03 5.37421039771000E-03 5.46759623114000E-03 5.56255153774000E-03 
5.65910269459000E-03 5.75727652208000E-03 5.85710029135000E-03 5.95860173187000E-03 
6.06180903914000E-03 6.16675088250000E-03 6.27345641316000E-03 6.38195527222000E-03 
6.49227759895000E-03 6.60445403916000E-03 6.71851575368000E-03 6.83449442706000E-03 
6.95242227634000E-03 7.07233206002000E-03 7.19425708714000E-03 7.31823122654000E-03 
7.44428891630000E-03 7.57246517323000E-03 7.70279560269000E-03 7.83531640840000E-03 
7.97006440256000E-03 8.10707701603000E-03 8.24639230874000E-03 8.38804898030000E-03 
8.53208638067000E-03 8.67854452119000E-03 8.82746408560000E-03 8.97888644141000E-03 
9.13285365137000E-03 9.28940848512000E-03 9.44859443113000E-03 9.61045570874000E-03 
9.77503728046000E-03 9.94238486445000E-03 1.01125449472000E-02 1.02855647966000E-02 
1.04614924747000E-02 1.06403768515000E-02 1.08222676182000E-02 1.10072153012000E-02 
1.11952712761000E-02 1.13864877819000E-02 1.15809179354000E-02 1.17786157463000E-02 
1.19796361319000E-02 1.21840349326000E-02 1.23918689270000E-02 1.26031958482000E-02 
1.28180743995000E-02 1.30365642707000E-02 1.32587261548000E-02 1.34846217650000E-02 
1.37143138514000E-02 1.39478662190000E-02 1.41853437448000E-02 1.44268123963000E-02 
1.46723392498000E-02 1.49219925086000E-02 1.51758415227000E-02 1.54339568071000E-02 
1.56964100623000E-02 1.59632741936000E-02 1.62346233317000E-02 1.65105328530000E-02 
1.67910794009000E-02 1.70763409068000E-02 1.73663966117000E-02 1.76613270887000E-02 
1.79612142648000E-02 1.82661414438000E-02 1.85761933297000E-02 1.88914560500000E-02 
1.92120171798000E-02 1.95379657658000E-02 1.98693923514000E-02 2.02063890018000E-02 
2.05490493292000E-02 2.08974685193000E-02 2.12517433574000E-02 2.16119722554000E-02 
2.19782552794000E-02 2.23506941768000E-02 2.27293924054000E-02 2.31144551616000E-02 
2.35059894096000E-02 2.39041039116000E-02 2.43089092575000E-02 2.47205178957000E-02 
2.51390441647000E-02 2.55646043244000E-02 2.59973165888000E-02 2.64373011585000E-02 
2.68846802542000E-02 2.73395781508000E-02 2.78021212118000E-02 2.82724379242000E-02 
2.87506589347000E-02 2.92369170855000E-02 2.97313474514000E-02 3.02340873774000E-02 
3.07452765167000E-02 3.12650568696000E-02 3.17935728228000E-02 3.23309711898000E-02 
3.28774012512000E-02 3.34330147968000E-02 3.39979661672000E-02 3.45724122970000E-02 
3.51565127582000E-02 3.57504298048000E-02 3.63543284174000E-02 3.69683763497000E-02 
3.75927441744000E-02 3.82276053310000E-02 3.88731361740000E-02 3.95295160216000E-02 
4.01969272058000E-02 4.08755551229000E-02 4.15655882849000E-02 4.22672183722000E-02 
4.29806402866000E-02 4.37060522054000E-02 4.44436556366000E-02 4.51936554747000E-02 
4.59562600579000E-02 4.67316812256000E-02 4.75201343777000E-02 4.83218385340000E-02 
4.91370163952000E-02 4.99658944049000E-02 5.08087028122000E-02 5.16656757361000E-02 
5.25370512300000E-02 5.34230713484000E-02 5.43239822137000E-02 5.52400340846000E-02 
5.61714814259000E-02 5.71185829789000E-02 5.80816018336000E-02 5.90608055013000E-02 
6.00564659893000E-02 6.10688598765000E-02 6.20982683898000E-02 6.31449774827000E-02 
6.42092779144000E-02 6.52914653308000E-02 6.63918403465000E-02 6.75107086282000E-02 
6.86483809800000E-02 6.98051734291000E-02 7.09814073144000E-02 7.21774093749000E-02 
7.33935118412000E-02 7.46300525273000E-02 7.58873749247000E-02 7.71658282978000E-02 
7.84657677806000E-02 7.97875544759000E-02 8.11315555550000E-02 8.24981443603000E-02 
8.38877005086000E-02 8.53006099966000E-02 8.67372653083000E-02 8.81980655238000E-02 
8.96834164303000E-02 9.11937306349000E-02 9.27294276791000E-02 9.42909341551000E-02 
9.58786838248000E-02 9.74931177401000E-02 9.91346843652000E-02 1.00803839701000E-01 
1.02501047413000E-01 1.04226778959000E-01 1.05981513719000E-01 1.07765739132000E-01 
1.09579950826000E-01 1.11424652761000E-01 1.13300357366000E-01 1.15207585683000E-01 
1.17146867509000E-01 1.19118741546000E-01 1.21123755549000E-01 1.23162466481000E-01 
1.25235440662000E-01 1.27343253931000E-01 1.29486491807000E-01 1.31665749647000E-01 
1.33881632814000E-01 1.36134756846000E-01 1.38425747624000E-01 1.40755241551000E-01 
1.43123885722000E-01 1.45532338109000E-01 1.47981267743000E-01 1.50471354898000E-01 
1.53003291280000E-01 1.55577780221000E-01 1.58195536874000E-01 1.60857288411000E-01 
1.63563774222000E-01 1.66315746129000E-01 1.69113968585000E-01 1.71959218892000E-01 
1.74852287415000E-01 1.77793977804000E-01 1.80785107214000E-01 1.83826506533000E-01 
1.86919020613000E-01 1.90063508507000E-01 1.93260843703000E-01 1.96511914371000E-01 
1.99817623607000E-01 2.03178889684000E-01 2.06596646310000E-01 2.10071842882000E-01 
2.13605444756000E-01 2.17198433511000E-01 2.20851807222000E-01 2.24566580739000E-01 
2.28343785966000E-01 2.32184472153000E-01 2.36089706180000E-01 2.40060572861000E-01 
2.44098175239000E-01 2.48203634897000E-01 2.52378092266000E-01 2.56622706944000E-01 
2.60938658020000E-01 2.65327144395000E-01 2.69789385122000E-01 2.74326619741000E-01 
2.78940108624000E-01 2.83631133326000E-01 2.88400996938000E-01 2.93251024454000E-01 
2.98182563135000E-01 3.03196982885000E-01 3.08295676629000E-01 3.13480060705000E-01 
3.18751575253000E-01 3.24111684615000E-01 3.29561877747000E-01 3.35103668625000E-01 
3.40738596671000E-01 3.46468227180000E-01 3.52294151753000E-01 3.58217988738000E-01 
3.64241383685000E-01 3.70366009797000E-01 3.76593568400000E-01 3.82925789410000E-01 
3.89364431818000E-01 3.95911284178000E-01 4.02568165101000E-01 4.09336923765000E-01 
4.16219440423000E-01 4.23217626929000E-01 4.30333427271000E-01 4.37568818104000E-01 
4.44925809305000E-01 4.52406444532000E-01 4.60012801785000E-01 4.67746993992000E-01 
4.75611169588000E-01 4.83607513118000E-01 4.91738245838000E-01 5.00005626339000E-01 
5.08411951168000E-01 5.16959555470000E-01 5.25650813634000E-01 5.34488139953000E-01 
5.43473989299000E-01 5.52610857797000E-01 5.61901283526000E-01 5.71347847220000E-01 
5.80953172983000E-01 5.90719929025000E-01 6.00650828396000E-01 6.10748629743000E-01 
6.21016138075000E-01 6.31456205545000E-01 6.42071732238000E-01 6.52865666979000E-01 
6.63841008154000E-01 6.75000804539000E-01 6.86348156149000E-01 6.97886215099000E-01 
7.09618186480000E-01 7.21547329248000E-01 7.33676957131000E-01 7.46010439547000E-01 
7.58551202544000E-01 7.71302729746000E-01 7.84268563328000E-01 7.97452304993000E-01 
8.10857616976000E-01 8.24488223061000E-01 8.38347909615000E-01 8.52440526641000E-01 
8.66769988844000E-01 8.81340276723000E-01 8.96155437675000E-01 9.11219587115000E-01 
9.26536909629000E-01 9.42111660125000E-01 9.57948165024000E-01 9.74050823456000E-01 
9.90424108486000E-01 1.00707256835000E+00 1.02400082774000E+00 1.04121358904000E+00 
1.05871563370000E+00 1.07651182350000E+00 1.09460710195000E+00 1.11300649563000E+00 
1.13171511559000E+00 1.15073815881000E+00 1.17008090957000E+00 1.18974874099000E+00 
1.20974711649000E+00 1.23008159129000E+00 1.25075781399000E+00 1.27178152813000E+00 
1.29315857375000E+00 1.31489488906000E+00 1.33699651206000E+00 1.35946958225000E+00 
1.38232034227000E+00 1.40555513972000E+00 1.42918042886000E+00 1.45320277240000E+00 
1.47762884339000E+00 1.50246542700000E+00 1.52771942244000E+00 1.55339784487000E+00 
1.57950782735000E+00 1.60605662282000E+00 1.63305160612000E+00 1.66050027603000E+00 
1.68841025735000E+00 1.71678930304000E+00 1.74564529635000E+00 1.77498625302000E+00 
1.80482032349000E+00 1.83515579522000E+00 1.86600109490000E+00 1.89736479088000E+00 
1.92925559550000E+00 1.96168236751000E+00 1.99465411457000E+00 2.02817999570000E+00 
2.06226932387000E+00 2.09693156855000E+00 2.13217635837000E+00 2.16801348377000E+00 
2.20445289974000E+00 2.24150472857000E+00 2.27917926268000E+00 2.31748696745000E+00 
2.35643848417000E+00 2.39604463295000E+00 2.43631641575000E+00 2.47726501943000E+00 
2.51890181888000E+00 2.56123838014000E+00 2.60428646363000E+00 2.64805802744000E+00 
2.69256523061000E+00 2.73782043654000E+00 2.78383621641000E+00 2.83062535268000E+00 
2.87820084264000E+00 2.92657590199000E+00 2.97576396858000E+00 3.02577870607000E+00 
3.07663400775000E+00 3.12834400044000E+00 3.18092304836000E+00 3.23438575712000E+00 
3.28874697783000E+00 3.34402181117000E+00 3.40022561163000E+00 3.45737399172000E+00 
3.51548282637000E+00 3.57456825730000E+00 3.63464669750000E+00 3.69573483581000E+00 
3.75784964156000E+00 3.82100836925000E+00 3.88522856339000E+00 3.95052806333000E+00 
4.01692500824000E+00 4.08443784215000E+00 4.15308531904000E+00 4.22288650812000E+00 
4.29386079903000E+00 4.36602790733000E+00 4.43940787990000E+00 4.51402110052000E+00 
4.58988829559000E+00 4.66703053980000E+00 4.74546926205000E+00 4.82522625138000E+00 
4.90632366303000E+00 4.98878402457000E+00 5.07263024219000E+00 5.15788560705000E+00 
5.24457380173000E+00 5.33271890685000E+00 5.42234540774000E+00 5.51347820121000E+00 
5.60614260251000E+00 5.70036435236000E+00 5.79616962407000E+00 5.89358503082000E+00 
5.99263763309000E+00 6.09335494611000E+00 6.19576494757000E+00 6.29989608536000E+00 
6.40577728544000E+00 6.51343795996000E+00 6.62290801535000E+00 6.73421786065000E+00 
6.84739841598000E+00 6.96248112113000E+00 7.07949794423000E+00 7.19848139073000E+00 
7.31946451234000E+00 7.44248091627000E+00 7.56756477452000E+00 7.69475083341000E+00 
7.82407442324000E+00 7.95557146804000E+00 8.08927849562000E+00 8.22523264768000E+00 
8.36347169014000E+00 8.50403402362000E+00 8.64695869411000E+00 8.79228540384000E+00 
8.94005452227000E+00 9.09030709732000E+00 9.24308486679000E+00 9.39843026992000E+00 
9.55638645923000E+00 9.71699731244000E+00 9.88030744471000E+00 1.00463622210000E+01 
1.02152077688000E+01 1.03868909906000E+01 1.05614595773000E+01 1.07389620214000E+01 
1.09194476302000E+01 1.11029665398000E+01 1.12895697288000E+01 1.14793090327000E+01 
1.16722371580000E+01 1.18684076971000E+01 1.20678751431000E+01 1.22706949049000E+01 
1.24769233226000E+01 1.26866176832000E+01 1.28998362366000E+01 1.31166382114000E+01 
1.33370838318000E+01 1.35612343341000E+01 1.37891519839000E+01 1.40209000929000E+01 
1.42565430373000E+01 1.44961462748000E+01 1.47397763635000E+01 1.49875009800000E+01 
1.52393889382000E+01 1.54955102087000E+01 1.57559359378000E+01 1.60207384678000E+01 
1.62899913566000E+01 1.65637693984000E+01 1.68421486444000E+01 1.71252064240000E+01 
1.74130213662000E+01 1.77056734214000E+01 1.80032438837000E+01 1.83058154135000E+01 
1.86134720604000E+01 1.89262992866000E+01 1.92443839905000E+01 1.95678145310000E+01 
1.98966807520000E+01 2.02310740074000E+01 2.05710871863000E+01 2.09168147390000E+01 
2.12683527032000E+01 2.16257987306000E+01 2.19892521140000E+01 2.23588138151000E+01 
2.27345864922000E+01 2.31166745290000E+01 2.35051840637000E+01 2.39002230179000E+01 
2.43019011274000E+01 2.47103299718000E+01 2.51256230063000E+01 2.55478955928000E+01 
2.59772650319000E+01 2.64138505956000E+01 2.68577735606000E+01 2.73091572416000E+01 
2.77681270258000E+01 2.82348104079000E+01 2.87093370251000E+01 2.91918386934000E+01 
2.96824494441000E+01 3.01813055612000E+01 3.06885456191000E+01 3.12043105209000E+01 
3.17287435381000E+01 3.22619903498000E+01 3.28041990836000E+01 3.33555203565000E+01 
3.39161073169000E+01 3.44861156870000E+01 3.50657038060000E+01 3.56550326745000E+01 
3.62542659986000E+01 3.68635702360000E+01 3.74831146417000E+01 3.81130713153000E+01 
3.87536152490000E+01 3.94049243756000E+01 4.00671796186000E+01 4.07405649420000E+01 
4.14252674016000E+01 4.21214771969000E+01 4.28293877241000E+01 4.35491956296000E+01 
4.42811008644000E+01 4.50253067405000E+01 4.57820199864000E+01 4.65514508051000E+01 
4.73338129324000E+01 4.81293236961000E+01 4.89382040765000E+01 4.97606787677000E+01 
5.05969762404000E+01 5.14473288048000E+01 5.23119726752000E+01 5.31911480362000E+01 
5.40850991088000E+01 5.49940742185000E+01 5.59183258642000E+01 5.68581107884000E+01 
5.78136900485000E+01 5.87853290894000E+01 5.97732978170000E+01 6.07778706735000E+01 
6.17993267133000E+01 6.28379496807000E+01 6.38940280890000E+01 6.49678552998000E+01 
6.60597296055000E+01 6.71699543116000E+01 6.82988378209000E+01 6.94466937194000E+01 
7.06138408633000E+01 7.18006034678000E+01 7.30073111967000E+01 7.42342992543000E+01 
7.54819084787000E+01 7.67504854358000E+01 7.80403825164000E+01 7.93519580336000E+01 
8.06855763222000E+01 
</PP_R>
    <PP_RAB>
3.03960655185000E-06 3.09069118380000E-06 3.14263436096000E-06 3.19545051231000E-06 
3.24915430936000E-06 3.30376067016000E-06 3.35928476350000E-06 3.41574201309000E-06 
3.47314810188000E-06 3.53151897636000E-06 3.59087085104000E-06 3.65122021294000E-06 
3.71258382615000E-06 3.77497873652000E-06 3.83842227637000E-06 3.90293206930000E-06 
3.96852603514000E-06 4.03522239483000E-06 4.10303967558000E-06 4.17199671595000E-06 
4.24211267113000E-06 4.31340701822000E-06 4.38589956166000E-06 4.45961043873000E-06 
4.53456012516000E-06 4.61076944078000E-06 4.68825955534000E-06 4.76705199436000E-06 
4.84716864515000E-06 4.92863176283000E-06 5.01146397659000E-06 5.09568829590000E-06 
5.18132811695000E-06 5.26840722912000E-06 5.35694982162000E-06 5.44698049019000E-06 
5.53852424391000E-06 5.63160651221000E-06 5.72625315186000E-06 5.82249045420000E-06 
5.92034515245000E-06 6.01984442908000E-06 6.12101592343000E-06 6.22388773934000E-06 
6.32848845297000E-06 6.43484712076000E-06 6.54299328746000E-06 6.65295699436000E-06 
6.76476878765000E-06 6.87845972688000E-06 6.99406139360000E-06 7.11160590013000E-06 
7.23112589846000E-06 7.35265458937000E-06 7.47622573162000E-06 7.60187365131000E-06 
7.72963325145000E-06 7.85954002163000E-06 7.99163004792000E-06 8.12594002283000E-06 
8.26250725555000E-06 8.40136968231000E-06 8.54256587689000E-06 8.68613506136000E-06 
8.83211711698000E-06 8.98055259526000E-06 9.13148272923000E-06 9.28494944489000E-06 
9.44099537288000E-06 9.59966386029000E-06 9.76099898273000E-06 9.92504555653000E-06 
1.00918491513000E-05 1.02614561023000E-05 1.04339135238000E-05 1.06092693217000E-05 
1.07875722071000E-05 1.09688717097000E-05 1.11532181916000E-05 1.13406628614000E-05 
1.15312577882000E-05 1.17250559164000E-05 1.19221110799000E-05 1.21224780176000E-05 
1.23262123883000E-05 1.25333707861000E-05 1.27440107564000E-05 1.29581908116000E-05 
1.31759704476000E-05 1.33974101601000E-05 1.36225714615000E-05 1.38515168982000E-05 
1.40843100676000E-05 1.43210156358000E-05 1.45616993561000E-05 1.48064280864000E-05 
1.50552698087000E-05 1.53082936472000E-05 1.55655698879000E-05 1.58271699980000E-05 
1.60931666461000E-05 1.63636337217000E-05 1.66386463564000E-05 1.69182809442000E-05 
1.72026151633000E-05 1.74917279973000E-05 1.77856997570000E-05 1.80846121033000E-05 
1.83885480692000E-05 1.86975920834000E-05 1.90118299934000E-05 1.93313490895000E-05 
1.96562381291000E-05 1.99865873612000E-05 2.03224885517000E-05 2.06640350086000E-05 
2.10113216081000E-05 2.13644448209000E-05 2.17235027390000E-05 2.20885951032000E-05 
2.24598233303000E-05 2.28372905416000E-05 2.32211015916000E-05 2.36113630968000E-05 
2.40081834659000E-05 2.44116729292000E-05 2.48219435697000E-05 2.52391093542000E-05 
2.56632861647000E-05 2.60945918308000E-05 2.65331461624000E-05 2.69790709829000E-05 
2.74324901634000E-05 2.78935296564000E-05 2.83623175314000E-05 2.88389840104000E-05 
2.93236615037000E-05 2.98164846471000E-05 3.03175903390000E-05 3.08271177787000E-05 
3.13452085050000E-05 3.18720064351000E-05 3.24076579054000E-05 3.29523117112000E-05 
3.35061191488000E-05 3.40692340572000E-05 3.46418128607000E-05 3.52240146128000E-05 
3.58160010400000E-05 3.64179365865000E-05 3.70299884608000E-05 3.76523266811000E-05 
3.82851241231000E-05 3.89285565680000E-05 3.95828027511000E-05 4.02480444118000E-05 
4.09244663436000E-05 4.16122564458000E-05 4.23116057758000E-05 4.30227086016000E-05 
4.37457624565000E-05 4.44809681933000E-05 4.52285300407000E-05 4.59886556594000E-05 
4.67615562005000E-05 4.75474463633000E-05 4.83465444559000E-05 4.91590724551000E-05 
4.99852560683000E-05 5.08253247962000E-05 5.16795119967000E-05 5.25480549495000E-05 
5.34311949222000E-05 5.43291772369000E-05 5.52422513392000E-05 5.61706708665000E-05 
5.71146937191000E-05 5.80745821316000E-05 5.90506027460000E-05 6.00430266853000E-05 
6.10521296291000E-05 6.20781918904000E-05 6.31214984931000E-05 6.41823392513000E-05 
6.52610088497000E-05 6.63578069258000E-05 6.74730381527000E-05 6.86070123240000E-05 
6.97600444400000E-05 7.09324547946000E-05 7.21245690650000E-05 7.33367184016000E-05 
7.45692395206000E-05 7.58224747966000E-05 7.70967723587000E-05 7.83924861867000E-05 
7.97099762094000E-05 8.10496084046000E-05 8.24117549011000E-05 8.37967940817000E-05 
8.52051106884000E-05 8.66370959292000E-05 8.80931475871000E-05 8.95736701302000E-05 
9.10790748243000E-05 9.26097798471000E-05 9.41662104042000E-05 9.57487988475000E-05 
9.73579847950000E-05 9.89942152532000E-05 1.00657944741000E-04 1.02349635416000E-04 
1.04069757204000E-04 1.05818787927000E-04 1.07597213438000E-04 1.09405527756000E-04 
1.11244233201000E-04 1.13113840538000E-04 1.15014869113000E-04 1.16947847003000E-04 
1.18913311158000E-04 1.20911807552000E-04 1.22943891337000E-04 1.25010126994000E-04 
1.27111088490000E-04 1.29247359439000E-04 1.31419533263000E-04 1.33628213359000E-04 
1.35874013261000E-04 1.38157556819000E-04 1.40479478364000E-04 1.42840422890000E-04 
1.45241046230000E-04 1.47682015238000E-04 1.50164007979000E-04 1.52687713909000E-04 
1.55253834075000E-04 1.57863081304000E-04 1.60516180404000E-04 1.63213868364000E-04 
1.65956894560000E-04 1.68746020959000E-04 1.71582022339000E-04 1.74465686495000E-04 
1.77397814463000E-04 1.80379220743000E-04 1.83410733521000E-04 1.86493194905000E-04 
1.89627461154000E-04 1.92814402916000E-04 1.96054905475000E-04 1.99349868990000E-04 
2.02700208751000E-04 2.06106855428000E-04 2.09570755336000E-04 2.13092870689000E-04 
2.16674179877000E-04 2.20315677730000E-04 2.24018375799000E-04 2.27783302635000E-04 
2.31611504076000E-04 2.35504043535000E-04 2.39462002298000E-04 2.43486479823000E-04 
2.47578594048000E-04 2.51739481696000E-04 2.55970298597000E-04 2.60272220004000E-04 
2.64646440924000E-04 2.69094176445000E-04 2.73616662080000E-04 2.78215154102000E-04 
2.82890929900000E-04 2.87645288331000E-04 2.92479550081000E-04 2.97395058031000E-04 
3.02393177631000E-04 3.07475297281000E-04 3.12642828713000E-04 3.17897207385000E-04 
3.23239892881000E-04 3.28672369315000E-04 3.34196145743000E-04 3.39812756582000E-04 
3.45523762038000E-04 3.51330748540000E-04 3.57235329174000E-04 3.63239144142000E-04 
3.69343861208000E-04 3.75551176165000E-04 3.81862813309000E-04 3.88280525912000E-04 
3.94806096713000E-04 4.01441338413000E-04 4.08188094177000E-04 4.15048238147000E-04 
4.22023675964000E-04 4.29116345293000E-04 4.36328216366000E-04 4.43661292527000E-04 
4.51117610789000E-04 4.58699242399000E-04 4.66408293414000E-04 4.74246905288000E-04 
4.82217255463000E-04 4.90321557977000E-04 4.98562064075000E-04 5.06941062842000E-04 
5.15460881831000E-04 5.24123887712000E-04 5.32932486932000E-04 5.41889126381000E-04 
5.50996294072000E-04 5.60256519832000E-04 5.69672376005000E-04 5.79246478168000E-04 
5.88981485855000E-04 5.98880103298000E-04 6.08945080176000E-04 6.19179212380000E-04 
6.29585342792000E-04 6.40166362069000E-04 6.50925209452000E-04 6.61864873579000E-04 
6.72988393316000E-04 6.84298858600000E-04 6.95799411300000E-04 7.07493246089000E-04 
7.19383611329000E-04 7.31473809975000E-04 7.43767200495000E-04 7.56267197797000E-04 
7.68977274183000E-04 7.81900960313000E-04 7.95041846181000E-04 8.08403582119000E-04 
8.21989879805000E-04 8.35804513300000E-04 8.49851320088000E-04 8.64134202153000E-04 
8.78657127052000E-04 8.93424129026000E-04 9.08439310113000E-04 9.23706841295000E-04 
9.39230963650000E-04 9.55015989534000E-04 9.71066303778000E-04 9.87386364906000E-04 
1.00398070637000E-03 1.02085393783000E-03 1.03801074638000E-03 1.05545589793000E-03 
1.07319423846000E-03 1.09123069540000E-03 1.10957027899000E-03 1.12821808369000E-03 
1.14717928955000E-03 1.16645916370000E-03 1.18606306179000E-03 1.20599642947000E-03 
1.22626480390000E-03 1.24687381534000E-03 1.26782918863000E-03 1.28913674485000E-03 
1.31080240290000E-03 1.33283218115000E-03 1.35523219914000E-03 1.37800867922000E-03 
1.40116794836000E-03 1.42471643983000E-03 1.44866069502000E-03 1.47300736528000E-03 
1.49776321372000E-03 1.52293511713000E-03 1.54853006787000E-03 1.57455517580000E-03 
1.60101767030000E-03 1.62792490222000E-03 1.65528434597000E-03 1.68310360157000E-03 
1.71139039678000E-03 1.74015258920000E-03 1.76939816854000E-03 1.79913525875000E-03 
1.82937212031000E-03 1.86011715257000E-03 1.89137889599000E-03 1.92316603460000E-03 
1.95548739837000E-03 1.98835196565000E-03 2.02176886571000E-03 2.05574738123000E-03 
2.09029695091000E-03 2.12542717207000E-03 2.16114780334000E-03 2.19746876733000E-03 
2.23440015345000E-03 2.27195222065000E-03 2.31013540029000E-03 2.34896029906000E-03 
2.38843770191000E-03 2.42857857504000E-03 2.46939406894000E-03 2.51089552152000E-03 
2.55309446122000E-03 2.59600261024000E-03 2.63963188779000E-03 2.68399441339000E-03 
2.72910251026000E-03 2.77496870871000E-03 2.82160574964000E-03 2.86902658808000E-03 
2.91724439681000E-03 2.96627256996000E-03 3.01612472679000E-03 3.06681471543000E-03 
3.11835661677000E-03 3.17076474834000E-03 3.22405366827000E-03 3.27823817941000E-03 
3.33333333333000E-03 3.38935443462000E-03 3.44631704505000E-03 3.50423698792000E-03 
3.56313035249000E-03 3.62301349840000E-03 3.68390306025000E-03 3.74581595219000E-03 
3.80876937265000E-03 3.87278080909000E-03 3.93786804289000E-03 4.00404915423000E-03 
4.07134252720000E-03 4.13976685483000E-03 4.20934114431000E-03 4.28008472229000E-03 
4.35201724022000E-03 4.42515867980000E-03 4.49952935859000E-03 4.57514993557000E-03 
4.65204141695000E-03 4.73022516198000E-03 4.80972288885000E-03 4.89055668079000E-03 
4.97274899214000E-03 5.05632265463000E-03 5.14130088370000E-03 5.22770728497000E-03 
5.31556586076000E-03 5.40490101681000E-03 5.49573756900000E-03 5.58810075030000E-03 
5.68201621774000E-03 5.77751005956000E-03 5.87460880243000E-03 5.97333941885000E-03 
6.07372933464000E-03 6.17580643651000E-03 6.27959907988000E-03 6.38513609671000E-03 
6.49244680352000E-03 6.60156100951000E-03 6.71250902490000E-03 6.82532166929000E-03 
6.94003028026000E-03 7.05666672204000E-03 7.17526339440000E-03 7.29585324161000E-03 
7.41846976164000E-03 7.54314701542000E-03 7.66991963631000E-03 7.79882283975000E-03 
7.92989243302000E-03 8.06316482518000E-03 8.19867703719000E-03 8.33646671221000E-03 
8.47657212603000E-03 8.61903219772000E-03 8.76388650044000E-03 8.91117527244000E-03 
9.06093942820000E-03 9.21322056984000E-03 9.36806099866000E-03 9.52550372688000E-03 
9.68559248961000E-03 9.84837175697000E-03 1.00138867465000E-02 1.01821834356000E-02 
1.03533085745000E-02 1.05273096990000E-02 1.07042351438000E-02 1.08841340562000E-02 
1.10670564091000E-02 1.12530530155000E-02 1.14421755424000E-02 1.16344765249000E-02 
1.18300093812000E-02 1.20288284274000E-02 1.22309888921000E-02 1.24365469323000E-02 
1.26455596489000E-02 1.28580851023000E-02 1.30741823287000E-02 1.32939113564000E-02 
1.35173332228000E-02 1.37445099909000E-02 1.39755047668000E-02 1.42103817172000E-02 
1.44492060873000E-02 1.46920442186000E-02 1.49389635678000E-02 1.51900327251000E-02 
1.54453214337000E-02 1.57049006086000E-02 1.59688423569000E-02 1.62372199975000E-02 
1.65101080813000E-02 1.67875824124000E-02 1.70697200689000E-02 1.73565994239000E-02 
1.76483001682000E-02 1.79449033316000E-02 1.82464913058000E-02 1.85531478670000E-02 
1.88649581998000E-02 1.91820089200000E-02 1.95043880994000E-02 1.98321852898000E-02 
2.01654915480000E-02 2.05043994614000E-02 2.08490031731000E-02 2.11993984087000E-02 
2.15556825023000E-02 2.19179544242000E-02 2.22863148076000E-02 2.26608659773000E-02 
2.30417119778000E-02 2.34289586020000E-02 2.38227134208000E-02 2.42230858133000E-02 
2.46301869964000E-02 2.50441300566000E-02 2.54650299805000E-02 2.58930036877000E-02 
2.63281700624000E-02 2.67706499869000E-02 2.72205663752000E-02 2.76780442070000E-02 
2.81432105624000E-02 2.86161946573000E-02 2.90971278791000E-02 2.95861438235000E-02 
3.00833783314000E-02 3.05889695268000E-02 3.11030578549000E-02 3.16257861212000E-02 
3.21572995315000E-02 3.26977457317000E-02 3.32472748494000E-02 3.38060395349000E-02 
3.43741950044000E-02 3.49518990824000E-02 3.55393122460000E-02 3.61365976693000E-02 
3.67439212688000E-02 3.73614517493000E-02 3.79893606511000E-02 3.86278223974000E-02 
3.92770143427000E-02 3.99371168224000E-02 4.06083132023000E-02 4.12907899305000E-02 
4.19847365879000E-02 4.26903459422000E-02 4.34078140004000E-02 4.41373400639000E-02 