<UPF version="2.0.1">
  <PP_INFO>
Generated using Vanderbilt code, version   7  3  6
Author: kfg        Generation date:   16    6   15
Automatically converted from original USPP format to UPF.v1.

Futher converted to UPF.v2 format.
Convert Q_IJ to Q_IJL use the same routine as 'upflib/upf_to_internal.f90' of QE.
The conversion is done by using PseudoPotentialIO.jl package.
Converted by: JYU on 2024-04-30

1        The Pseudo was generated with a Scalar-Relativistic Calculation
1.45000000000E+00    Local Potential cutoff radius
nl pn  l   occ               Rcut            Rcut US             E pseu
3S  3  0  2.00      0.00000000000      1.45000000000     -6.60016099200
3P  3  1  6.00      0.00000000000      1.45000000000     -4.30139239000
4S  4  0  1.50      0.00000000000      1.45000000000     -0.61588547900
3D  3  2  5.00      0.00000000000      1.70000000000     -0.78363640200
4P  4  1  0.00      0.00000000000      1.45000000000     -0.30420916800
</PP_INFO>
  <PP_HEADER element="Mn" pseudo_type="US" relativistic="scalar" is_ultrasoft="T" is_paw="F" is_coulomb="F" has_so="F" has_wfc="F" has_gipaw="F" core_correction="T" functional="PBE" z_valence="15.0" total_psenergy="-210.272967934" wfc_cutoff="0.0" rho_cutoff="0.0" l_max="2" mesh_size="859" number_of_wfc="5" number_of_proj="6"/>
  <PP_MESH>
    <PP_R>
0.00000000000000E+00 1.69483236320000E-06 3.41863552031000E-06 5.17190468664000E-06 
6.95514354247000E-06 8.76886437784000E-06 1.06135882396000E-05 1.24898450813000E-05 
1.43981739152000E-05 1.63391229672000E-05 1.83132498344000E-05 2.03211216453000E-05 
2.23633152226000E-05 2.44404172490000E-05 2.65530244357000E-05 2.87017436938000E-05 
3.08871923089000E-05 3.31099981181000E-05 3.53707996903000E-05 3.76702465103000E-05 
4.00089991644000E-05 4.23877295313000E-05 4.48071209739000E-05 4.72678685367000E-05 
4.97706791449000E-05 5.23162718074000E-05 5.49053778239000E-05 5.75387409943000E-05 
6.02171178329000E-05 6.29412777856000E-05 6.57120034509000E-05 6.85300908045000E-05 
7.13963494285000E-05 7.43116027435000E-05 7.72766882453000E-05 8.02924577456000E-05 
8.33597776168000E-05 8.64795290403000E-05 8.96526082604000E-05 9.28799268414000E-05 
9.61624119295000E-05 9.95010065191000E-05 1.02896669724000E-04 1.06350377052000E-04 
1.09863120687000E-04 1.13435909772000E-04 1.17069770700000E-04 1.20765747409000E-04 
1.24524901682000E-04 1.28348313450000E-04 1.32237081107000E-04 1.36192321820000E-04 
1.40215171853000E-04 1.44306786893000E-04 1.48468342382000E-04 1.52701033853000E-04 
1.57006077279000E-04 1.61384709413000E-04 1.65838188153000E-04 1.70367792897000E-04 
1.74974824912000E-04 1.79660607710000E-04 1.84426487425000E-04 1.89273833203000E-04 
1.94204037591000E-04 1.99218516943000E-04 2.04318711822000E-04 2.09506087413000E-04 
2.14782133951000E-04 2.20148367142000E-04 2.25606328599000E-04 2.31157586290000E-04 
2.36803734985000E-04 2.42546396711000E-04 2.48387221225000E-04 2.54327886482000E-04 
2.60370099121000E-04 2.66515594953000E-04 2.72766139459000E-04 2.79123528300000E-04 
2.85589587831000E-04 2.92166175626000E-04 2.98855181010000E-04 3.05658525606000E-04 
3.12578163884000E-04 3.19616083720000E-04 3.26774306974000E-04 3.34054890064000E-04 
3.41459924561000E-04 3.48991537789000E-04 3.56651893433000E-04 3.64443192167000E-04 
3.72367672278000E-04 3.80427610317000E-04 3.88625321749000E-04 3.96963161617000E-04 
4.05443525221000E-04 4.14068848805000E-04 4.22841610258000E-04 4.31764329825000E-04 
4.40839570831000E-04 4.50069940416000E-04 4.59458090287000E-04 4.69006717477000E-04 
4.78718565124000E-04 4.88596423252000E-04 4.98643129578000E-04 5.08861570329000E-04 
5.19254681063000E-04 5.29825447520000E-04 5.40576906477000E-04 5.51512146620000E-04 
5.62634309431000E-04 5.73946590094000E-04 5.85452238407000E-04 5.97154559721000E-04 
6.09056915886000E-04 6.21162726218000E-04 6.33475468483000E-04 6.45998679893000E-04 
6.58735958124000E-04 6.71690962351000E-04 6.84867414294000E-04 6.98269099294000E-04 
7.11899867396000E-04 7.25763634456000E-04 7.39864383264000E-04 7.54206164694000E-04 
7.68793098863000E-04 7.83629376313000E-04 7.98719259220000E-04 8.14067082617000E-04 
8.29677255634000E-04 8.45554262773000E-04 8.61702665192000E-04 8.78127102013000E-04 
8.94832291659000E-04 9.11823033208000E-04 9.29104207771000E-04 9.46680779895000E-04 
9.64557798990000E-04 9.82740400777000E-04 1.00123380877000E-03 1.02004333575000E-03 
1.03917438536000E-03 1.05863245355000E-03 1.07842313027000E-03 1.09855210098000E-03 
1.11902514835000E-03 1.13984815390000E-03 1.16102709967000E-03 1.18256806996000E-03 
1.20447725307000E-03 1.22676094309000E-03 1.24942554169000E-03 1.27247755997000E-03 
1.29592362033000E-03 1.31977045838000E-03 1.34402492484000E-03 1.36869398755000E-03 
1.39378473346000E-03 1.41930437066000E-03 1.44526023044000E-03 1.47165976942000E-03 
1.49851057167000E-03 1.52582035092000E-03 1.55359695272000E-03 1.58184835677000E-03 
1.61058267914000E-03 1.63980817466000E-03 1.66953323923000E-03 1.69976641229000E-03 
1.73051637926000E-03 1.76179197399000E-03 1.79360218137000E-03 1.82595613985000E-03 
1.85886314409000E-03 1.89233264765000E-03 1.92637426566000E-03 1.96099777762000E-03 
1.99621313019000E-03 2.03203044008000E-03 2.06845999688000E-03 2.10551226612000E-03 
2.14319789219000E-03 2.18152770145000E-03 2.22051270530000E-03 2.26016410338000E-03 
2.30049328677000E-03 2.34151184128000E-03 2.38323155072000E-03 2.42566440037000E-03 
2.46882258037000E-03 2.51271848922000E-03 2.55736473737000E-03 2.60277415083000E-03 
2.64895977484000E-03 2.69593487763000E-03 2.74371295424000E-03 2.79230773039000E-03 
2.84173316642000E-03 2.89200346130000E-03 2.94313305672000E-03 2.99513664121000E-03 
3.04802915440000E-03 3.10182579129000E-03 3.15654200660000E-03 3.21219351926000E-03 
3.26879631685000E-03 3.32636666027000E-03 3.38492108837000E-03 3.44447642270000E-03 
3.50504977235000E-03 3.56665853888000E-03 3.62932042129000E-03 3.69305342112000E-03 
3.75787584764000E-03 3.82380632308000E-03 3.89086378798000E-03 3.95906750666000E-03 
4.02843707272000E-03 4.09899241470000E-03 4.17075380178000E-03 4.24374184963000E-03 
4.31797752628000E-03 4.39348215823000E-03 4.47027743649000E-03 4.54838542285000E-03 
4.62782855622000E-03 4.70862965910000E-03 4.79081194405000E-03 4.87439902048000E-03 
4.95941490132000E-03 5.04588400999000E-03 5.13383118740000E-03 5.22328169907000E-03 
5.31426124240000E-03 5.40679595404000E-03 5.50091241744000E-03 5.59663767044000E-03 
5.69399921303000E-03 5.79302501532000E-03 5.89374352550000E-03 5.99618367804000E-03 
6.10037490202000E-03 6.20634712957000E-03 6.31413080445000E-03 6.42375689083000E-03 
6.53525688216000E-03 6.64866281023000E-03 6.76400725437000E-03 6.88132335081000E-03 
7.00064480218000E-03 7.12200588724000E-03 7.24544147068000E-03 7.37098701315000E-03 
7.49867858145000E-03 7.62855285891000E-03 7.76064715588000E-03 7.89499942051000E-03 
8.03164824960000E-03 8.17063289971000E-03 8.31199329845000E-03 8.45577005592000E-03 
8.60200447640000E-03 8.75073857022000E-03 8.90201506579000E-03 9.05587742193000E-03 
9.21236984031000E-03 9.37153727819000E-03 9.53342546128000E-03 9.69808089692000E-03 
9.86555088745000E-03 1.00358835437000E-02 1.02091277991000E-02 1.03853334232000E-02 
1.05645510365000E-02 1.07468321248000E-02 1.09322290539000E-02 1.11207950848000E-02 
1.13125843888000E-02 1.15076520633000E-02 1.17060541474000E-02 1.19078476383000E-02 
1.21130905073000E-02 1.23218417167000E-02 1.25341612366000E-02 1.27501100625000E-02 
1.29697502322000E-02 1.31931448440000E-02 1.34203580749000E-02 1.36514551989000E-02 
1.38865026058000E-02 1.41255678200000E-02 1.43687195204000E-02 1.46160275598000E-02 
1.48675629850000E-02 1.51233980572000E-02 1.53836062729000E-02 1.56482623849000E-02 
1.59174424238000E-02 1.61912237198000E-02 1.64696849250000E-02 1.67529060359000E-02 
1.70409684163000E-02 1.73339548211000E-02 1.76319494197000E-02 1.79350378200000E-02 
1.82433070935000E-02 1.85568458000000E-02 1.88757440131000E-02 1.92000933462000E-02 
1.95299869784000E-02 1.98655196818000E-02 2.02067878486000E-02 2.05538895183000E-02 
2.09069244067000E-02 2.12659939338000E-02 2.16312012534000E-02 2.20026512824000E-02 
2.23804507312000E-02 2.27647081344000E-02 2.31555338815000E-02 2.35530402494000E-02 
2.39573414339000E-02 2.43685535829000E-02 2.47867948297000E-02 2.52121853269000E-02 
2.56448472809000E-02 2.60849049873000E-02 2.65324848659000E-02 2.69877154980000E-02 
2.74507276624000E-02 2.79216543735000E-02 2.84006309195000E-02 2.88877949012000E-02 
2.93832862712000E-02 2.98872473746000E-02 3.03998229898000E-02 3.09211603698000E-02 
3.14514092847000E-02 3.19907220647000E-02 3.25392536441000E-02 3.30971616053000E-02 
3.36646062245000E-02 3.42417505175000E-02 3.48287602867000E-02 3.54258041686000E-02 
3.60330536825000E-02 3.66506832794000E-02 3.72788703922000E-02 3.79177954870000E-02 
3.85676421147000E-02 3.92285969634000E-02 3.99008499129000E-02 4.05845940884000E-02 
4.12800259163000E-02 4.19873451807000E-02 4.27067550808000E-02 4.34384622892000E-02 
4.41826770111000E-02 4.49396130450000E-02 4.57094878440000E-02 4.64925225783000E-02 
4.72889421986000E-02 4.80989755007000E-02 4.89228551917000E-02 4.97608179561000E-02 
5.06131045246000E-02 5.14799597425000E-02 5.23616326405000E-02 5.32583765062000E-02 
5.41704489569000E-02 5.50981120131000E-02 5.60416321747000E-02 5.70012804966000E-02 
5.79773326673000E-02 5.89700690877000E-02 5.99797749517000E-02 6.10067403282000E-02 
6.20512602447000E-02 6.31136347713000E-02 6.41941691079000E-02 6.52931736709000E-02 
6.64109641831000E-02 6.75478617641000E-02 6.87041930227000E-02 6.98802901502000E-02 
7.10764910168000E-02 7.22931392678000E-02 7.35305844227000E-02 7.47891819755000E-02 
7.60692934969000E-02 7.73712867383000E-02 7.86955357370000E-02 8.00424209242000E-02 
8.14123292340000E-02 8.28056542145000E-02 8.42227961409000E-02 8.56641621309000E-02 
8.71301662608000E-02 8.86212296853000E-02 9.01377807582000E-02 9.16802551551000E-02 
9.32490959991000E-02 9.48447539879000E-02 9.64676875230000E-02 9.81183628420000E-02 
9.97972541518000E-02 1.01504843766000E-01 1.03241622241000E-01 1.05008088520000E-01 
1.06804750075000E-01 1.08632123051000E-01 1.10490732419000E-01 1.12381112119000E-01 
1.14303805223000E-01 1.16259364082000E-01 1.18248350490000E-01 1.20271335845000E-01 
1.22328901311000E-01 1.24421637988000E-01 1.26550147077000E-01 1.28715040058000E-01 
1.30916938864000E-01 1.33156476057000E-01 1.35434295012000E-01 1.37751050104000E-01 
1.40107406891000E-01 1.42504042308000E-01 1.44941644863000E-01 1.47420914832000E-01 
1.49942564461000E-01 1.52507318171000E-01 1.55115912766000E-01 1.57769097645000E-01 
1.60467635017000E-01 1.63212300119000E-01 1.66003881441000E-01 1.68843180949000E-01 
1.71731014320000E-01 1.74668211172000E-01 1.77655615305000E-01 1.80694084942000E-01 
1.83784492978000E-01 1.86927727225000E-01 1.90124690676000E-01 1.93376301755000E-01 
1.96683494587000E-01 2.00047219265000E-01 2.03468442122000E-01 2.06948146009000E-01 
2.10487330578000E-01 2.14087012568000E-01 2.17748226097000E-01 2.21472022962000E-01 
2.25259472938000E-01 2.29111664085000E-01 2.33029703063000E-01 2.37014715450000E-01 
2.41067846062000E-01 2.45190259285000E-01 2.49383139409000E-01 2.53647690968000E-01 
2.57985139083000E-01 2.62396729820000E-01 2.66883730544000E-01 2.71447430284000E-01 
2.76089140101000E-01 2.80810193470000E-01 2.85611946657000E-01 2.90495779114000E-01 
2.95463093870000E-01 3.00515317940000E-01 3.05653902729000E-01 3.10880324454000E-01 
3.16196084564000E-01 3.21602710175000E-01 3.27101754504000E-01 3.32694797322000E-01 
3.38383445401000E-01 3.44169332980000E-01 3.50054122233000E-01 3.56039503744000E-01 
3.62127197000000E-01 3.68318950875000E-01 3.74616544142000E-01 3.81021785976000E-01 
3.87536516481000E-01 3.94162607211000E-01 4.00901961715000E-01 4.07756516079000E-01 
4.14728239483000E-01 4.21819134769000E-01 4.29031239014000E-01 4.36366624115000E-01 
4.43827397388000E-01 4.51415702167000E-01 4.59133718426000E-01 4.66983663401000E-01 
4.74967792231000E-01 4.83088398600000E-01 4.91347815402000E-01 4.99748415407000E-01 
5.08292611945000E-01 5.16982859598000E-01 5.25821654907000E-01 5.34811537086000E-01 
5.43955088755000E-01 5.53254936678000E-01 5.62713752523000E-01 5.72334253624000E-01 
5.82119203765000E-01 5.92071413972000E-01 6.02193743323000E-01 6.12489099768000E-01 
6.22960440963000E-01 6.33610775121000E-01 6.44443161879000E-01 6.55460713170000E-01 
6.66666594124000E-01 6.78064023974000E-01 6.89656276981000E-01 7.01446683374000E-01 
7.13438630310000E-01 7.25635562843000E-01 7.38040984916000E-01 7.50658460365000E-01 
7.63491613948000E-01 7.76544132382000E-01 7.89819765402000E-01 8.03322326840000E-01 
8.17055695723000E-01 8.31023817379000E-01 8.45230704582000E-01 8.59680438693000E-01 
8.74377170844000E-01 8.89325123119000E-01 9.04528589777000E-01 9.19991938479000E-01 
9.35719611546000E-01 9.51716127235000E-01 9.67986081035000E-01 9.84534146988000E-01 
1.00136507903000E+00 1.01848371237000E+00 1.03589496486000E+00 1.05360383841000E+00 
1.07161542043000E+00 1.08993488532000E+00 1.10856749589000E+00 1.12751860493000E+00 
1.14679365673000E+00 1.16639818864000E+00 1.18633783267000E+00 1.20661831708000E+00 
1.22724546807000E+00 1.24822521142000E+00 1.26956357420000E+00 1.29126668652000E+00 
1.31334078325000E+00 1.33579220585000E+00 1.35862740419000E+00 1.38185293838000E+00 
1.40547548066000E+00 1.42950181734000E+00 1.45393885070000E+00 1.47879360105000E+00 
1.50407320867000E+00 1.52978493590000E+00 1.55593616922000E+00 1.58253442138000E+00 
1.60958733354000E+00 1.63710267748000E+00 1.66508835782000E+00 1.69355241431000E+00 
1.72250302412000E+00 1.75194850420000E+00 1.78189731367000E+00 1.81235805624000E+00 
1.84333948269000E+00 1.87485049339000E+00 1.90690014084000E+00 1.93949763229000E+00 
1.97265233235000E+00 2.00637376575000E+00 2.04067161998000E+00 2.07555574817000E+00 
2.11103617184000E+00 2.14712308384000E+00 2.18382685124000E+00 2.22115801831000E+00 
2.25912730959000E+00 2.29774563291000E+00 2.33702408257000E+00 2.37697394252000E+00 
2.41760668956000E+00 2.45893399670000E+00 2.50096773649000E+00 2.54371998439000E+00 
2.58720302231000E+00 2.63142934207000E+00 2.67641164905000E+00 2.72216286578000E+00 
2.76869613572000E+00 2.81602482696000E+00 2.86416253613000E+00 2.91312309225000E+00 
2.96292056075000E+00 3.01356924748000E+00 3.06508370282000E+00 3.11747872588000E+00 
3.17076936873000E+00 3.22497094076000E+00 3.28009901301000E+00 3.33616942272000E+00 
3.39319827783000E+00 3.45120196163000E+00 3.51019713745000E+00 3.57020075347000E+00 
3.63123004756000E+00 3.69330255226000E+00 3.75643609980000E+00 3.82064882722000E+00 
3.88595918161000E+00 3.95238592535000E+00 4.01994814158000E+00 4.08866523960000E+00 
4.15855696050000E+00 4.22964338284000E+00 4.30194492835000E+00 4.37548236788000E+00 
4.45027682731000E+00 4.52634979364000E+00 4.60372312116000E+00 4.68241903773000E+00 
4.76246015116000E+00 4.84386945572000E+00 4.92667033873000E+00 5.01088658728000E+00 
5.09654239506000E+00 5.18366236933000E+00 5.27227153798000E+00 5.36239535670000E+00 
5.45405971632000E+00 5.54729095024000E+00 5.64211584200000E+00 5.73856163293000E+00 
5.83665603007000E+00 5.93642721402000E+00 6.03790384711000E+00 6.14111508163000E+00 
6.24609056816000E+00 6.35286046413000E+00 6.46145544246000E+00 6.57190670038000E+00 
6.68424596842000E+00 6.79850551945000E+00 6.91471817805000E+00 7.03291732987000E+00 
7.15313693122000E+00 7.27541151887000E+00 7.39977621996000E+00 7.52626676204000E+00 
7.65491948341000E+00 7.78577134351000E+00 7.91885993353000E+00 8.05422348725000E+00 
8.19190089202000E+00 8.33193169987000E+00 8.47435613896000E+00 8.61921512506000E+00 
8.76655027336000E+00 8.91640391040000E+00 9.06881908622000E+00 9.22383958677000E+00 
9.38150994642000E+00 9.54187546083000E+00 9.70498219989000E+00 9.87087702102000E+00 
1.00396075826000E+01 1.02112223576000E+01 1.03857706478000E+01 1.05633025973000E+01 
1.07438692077000E+01 1.09275223524000E+01 1.11143147912000E+01 1.13043001861000E+01 
1.14975331162000E+01 1.16940690936000E+01 1.18939645791000E+01 1.20972769991000E+01 
1.23040647611000E+01 1.25143872713000E+01 1.27283049513000E+01 1.29458792555000E+01 
1.31671726887000E+01 1.33922488244000E+01 1.36211723225000E+01 1.38540089482000E+01 
1.40908255912000E+01 1.43316902842000E+01 1.45766722229000E+01 1.48258417860000E+01 
1.50792705550000E+01 1.53370313351000E+01 1.55991981761000E+01 1.58658463933000E+01 
1.61370525896000E+01 1.64128946774000E+01 1.66934519007000E+01 1.69788048581000E+01 
1.72690355262000E+01 1.75642272824000E+01 1.78644649298000E+01 1.81698347207000E+01 
1.84804243820000E+01 1.87963231401000E+01 1.91176217466000E+01 1.94444125044000E+01 
1.97767892941000E+01 2.01148476012000E+01 2.04586845432000E+01 2.08083988979000E+01 
2.11640911314000E+01 2.15258634272000E+01 2.18938197155000E+01 2.22680657031000E+01 
2.26487089035000E+01 2.30358586682000E+01 2.34296262178000E+01 2.38301246741000E+01 
2.42374690926000E+01 2.46517764955000E+01 2.50731659051000E+01 2.55017583787000E+01 
2.59376770424000E+01 2.63810471273000E+01 2.68319960050000E+01 2.72906532244000E+01 
2.77571505489000E+01 2.82316219941000E+01 2.87142038665000E+01 2.92050348025000E+01 
2.97042558084000E+01 3.02120103006000E+01 3.07284441472000E+01 3.12537057097000E+01 
3.17879458856000E+01 3.23313181516000E+01 3.28839786082000E+01 3.34460860240000E+01 
3.40178018816000E+01 3.45992904239000E+01 3.51907187013000E+01 3.57922566197000E+01 
3.64040769893000E+01 3.70263555742000E+01 3.76592711431000E+01 3.83030055204000E+01 
3.89577436384000E+01 3.96236735907000E+01 4.03009866863000E+01 4.09898775039000E+01 
4.16905439486000E+01 4.24031873084000E+01 4.31280123118000E+01 4.38652271871000E+01 
4.46150437217000E+01 4.53776773236000E+01 4.61533470826000E+01 4.69422758336000E+01 
4.77446902205000E+01 4.85608207615000E+01 4.93909019151000E+01 5.02351721476000E+01 
5.10938740014000E+01 5.19672541650000E+01 5.28555635436000E+01 5.37590573312000E+01 
5.46779950843000E+01 5.56126407957000E+01 5.65632629712000E+01 5.75301347061000E+01 
5.85135337639000E+01 5.95137426561000E+01 6.05310487235000E+01 6.15657442183000E+01 
6.26181263885000E+01 6.36884975633000E+01 6.47771652394000E+01 6.58844421701000E+01 
6.70106464546000E+01 6.81561016296000E+01 6.93211367623000E+01 7.05060865445000E+01 
7.17112913896000E+01 7.29370975295000E+01 7.41838571146000E+01 7.54519283148000E+01 
7.67416754224000E+01 7.80534689569000E+01 7.93876857710000E+01 8.07447091596000E+01 
8.21249289691000E+01 8.35287417100000E+01 8.49565506705000E+01 8.64087660325000E+01 
8.78858049894000E+01 8.93880918660000E+01 9.09160582400000E+01 9.24701430668000E+01 
9.40507928047000E+01 9.56584615440000E+01 9.72936111367000E+01 9.89567113296000E+01 
1.00648239899000E+02 1.02368682789000E+02 1.04118534249000E+02 1.05898296978000E+02 
1.07708482266000E+02 1.09549610146000E+02 1.11422209537000E+02 1.13326818402000E+02 
1.15263983897000E+02 1.17234262532000E+02 1.19238220332000E+02 1.21276432993000E+02 
1.23349486054000E+02 1.25457975065000E+02 1.27602505753000E+02 1.29783694200000E+02 
1.32002167019000E+02 1.34258561535000E+02 1.36553525966000E+02 1.38887719611000E+02 
1.41261813039000E+02 1.43676488281000E+02 1.46132439026000E+02 1.48630370822000E+02 
1.51171001275000E+02 1.53755060261000E+02 1.56383290128000E+02 1.59056445917000E+02 
1.61775295573000E+02 1.64540620170000E+02 1.67353214132000E+02 1.70213885462000E+02 
1.73123455976000E+02 1.76082761537000E+02 1.79092652297000E+02 1.82153992939000E+02 
1.85267662926000E+02 1.88434556757000E+02 1.91655584218000E+02 1.94931670647000E+02 
1.98263757203000E+02 2.01652801127000E+02 2.05099776028000E+02 
</PP_R>
    <PP_RAB>
1.68050995028000E-06 1.70923592254000E-06 1.73845292520000E-06 1.76816935175000E-06 
1.79839373914000E-06 1.82913477025000E-06 1.86040127638000E-06 1.89220223980000E-06 
1.92454679630000E-06 1.95744423786000E-06 1.99090401527000E-06 2.02493574088000E-06 
2.05954919134000E-06 2.09475431043000E-06 2.13056121190000E-06 2.16698018238000E-06 
2.20402168433000E-06 2.24169635906000E-06 2.28001502978000E-06 2.31898870469000E-06 
2.35862858019000E-06 2.39894604403000E-06 2.43995267865000E-06 2.48166026446000E-06 
2.52408078325000E-06 2.56722642159000E-06 2.61110957442000E-06 2.65574284849000E-06 
2.70113906609000E-06 2.74731126868000E-06 2.79427272064000E-06 2.84203691307000E-06 
2.89061756771000E-06 2.94002864085000E-06 2.99028432732000E-06 3.04139906462000E-06 
3.09338753701000E-06 3.14626467978000E-06 3.20004568351000E-06 3.25474599844000E-06 
3.31038133892000E-06 3.36696768789000E-06 3.42452130153000E-06 3.48305871387000E-06 
3.54259674158000E-06 3.60315248878000E-06 3.66474335197000E-06 3.72738702501000E-06 
3.79110150421000E-06 3.85590509351000E-06 3.92181640973000E-06 3.98885438791000E-06 
4.05703828678000E-06 4.12638769423000E-06 4.19692253302000E-06 4.26866306644000E-06 
4.34162990416000E-06 4.41584400813000E-06 4.49132669864000E-06 4.56809966040000E-06 
4.64618494879000E-06 4.72560499621000E-06 4.80638261850000E-06 4.88854102151000E-06 
4.97210380776000E-06 5.05709498322000E-06 5.14353896421000E-06 5.23146058441000E-06 
5.32088510200000E-06 5.41183820692000E-06 5.50434602823000E-06 5.59843514165000E-06 
5.69413257714000E-06 5.79146582674000E-06 5.89046285240000E-06 5.99115209405000E-06 
6.09356247776000E-06 6.19772342406000E-06 6.30366485637000E-06 6.41141720961000E-06 
6.52101143895000E-06 6.63247902868000E-06 6.74585200130000E-06 6.86116292666000E-06 
6.97844493136000E-06 7.09773170825000E-06 7.21905752611000E-06 7.34245723951000E-06 
7.46796629878000E-06 7.59562076026000E-06 7.72545729661000E-06 7.85751320734000E-06 
7.99182642957000E-06 8.12843554888000E-06 8.26737981044000E-06 8.40869913023000E-06 
8.55243410656000E-06 8.69862603172000E-06 8.84731690381000E-06 8.99854943885000E-06 
9.15236708301000E-06 9.30881402513000E-06 9.46793520938000E-06 9.62977634820000E-06 
9.79438393543000E-06 9.96180525963000E-06 1.01320884177000E-05 1.03052823287000E-05 
1.04814367480000E-05 1.06606022811000E-05 1.08428303990000E-05 1.10281734523000E-05 
1.12166846864000E-05 1.14084182570000E-05 1.16034292453000E-05 1.18017736744000E-05 
1.20035085246000E-05 1.22086917506000E-05 1.24173822974000E-05 1.26296401180000E-05 
1.28455261897000E-05 1.30651025325000E-05 1.32884322265000E-05 1.35155794298000E-05 
1.37466093977000E-05 1.39815885004000E-05 1.42205842429000E-05 1.44636652841000E-05 
1.47109014564000E-05 1.49623637861000E-05 1.52181245133000E-05 1.54782571133000E-05 
1.57428363170000E-05 1.60119381329000E-05 1.62856398688000E-05 1.65640201539000E-05 
1.68471589614000E-05 1.71351376318000E-05 1.74280388956000E-05 1.77259468977000E-05 
1.80289472213000E-05 1.83371269126000E-05 1.86505745056000E-05 1.89693800478000E-05 
1.92936351258000E-05 1.96234328918000E-05 1.99588680904000E-05 2.03000370855000E-05 
2.06470378885000E-05 2.09999701859000E-05 2.13589353684000E-05 2.17240365597000E-05 
2.20953786463000E-05 2.24730683077000E-05 2.28572140467000E-05 2.32479262210000E-05 
2.36453170746000E-05 2.40495007703000E-05 2.44605934221000E-05 2.48787131291000E-05 
2.53039800090000E-05 2.57365162327000E-05 2.61764460594000E-05 2.66238958726000E-05 
2.70789942159000E-05 2.75418718302000E-05 2.80126616913000E-05 2.84914990481000E-05 
2.89785214612000E-05 2.94738688428000E-05 2.99776834965000E-05 3.04901101586000E-05 
3.10112960394000E-05 3.15413908654000E-05 3.20805469226000E-05 3.26289191002000E-05 
3.31866649349000E-05 3.37539446562000E-05 3.43309212326000E-05 3.49177604184000E-05 
3.55146308010000E-05 3.61217038499000E-05 3.67391539653000E-05 3.73671585286000E-05 
3.80058979536000E-05 3.86555557375000E-05 3.93163185146000E-05 3.99883761093000E-05 
4.06719215905000E-05 4.13671513278000E-05 4.20742650472000E-05 4.27934658888000E-05 
4.35249604650000E-05 4.42689589202000E-05 4.50256749905000E-05 4.57953260661000E-05 
4.65781332526000E-05 4.73743214355000E-05 4.81841193441000E-05 4.90077596179000E-05 
4.98454788727000E-05 5.06975177690000E-05 5.15641210811000E-05 5.24455377674000E-05 
5.33420210418000E-05 5.42538284467000E-05 5.51812219266000E-05 5.61244679038000E-05 
5.70838373545000E-05 5.80596058871000E-05 5.90520538210000E-05 6.00614662672000E-05 
6.10881332105000E-05 6.21323495923000E-05 6.31944153958000E-05 6.42746357320000E-05 
6.53733209273000E-05 6.64907866127000E-05 6.76273538144000E-05 6.87833490462000E-05 
6.99591044031000E-05 7.11549576570000E-05 7.23712523534000E-05 7.36083379100000E-05 
7.48665697178000E-05 7.61463092423000E-05 7.74479241280000E-05 7.87717883036000E-05 
8.01182820897000E-05 8.14877923078000E-05 8.28807123919000E-05 8.42974425008000E-05 
8.57383896337000E-05 8.72039677468000E-05 8.86945978724000E-05 9.02107082396000E-05 
9.17527343977000E-05 9.33211193409000E-05 9.49163136358000E-05 9.65387755509000E-05 
9.81889711881000E-05 9.98673746167000E-05 1.01574468010000E-04 1.03310741781000E-04 
1.05076694730000E-04 1.06872834180000E-04 1.08699676127000E-04 1.10557745388000E-04 
1.12447575750000E-04 1.14369710124000E-04 1.16324700702000E-04 1.18313109116000E-04 
1.20335506597000E-04 1.22392474141000E-04 1.24484602674000E-04 1.26612493224000E-04 
1.28776757094000E-04 1.30978016033000E-04 1.33216902423000E-04 1.35494059450000E-04 
1.37810141299000E-04 1.40165813335000E-04 1.42561752297000E-04 1.44998646491000E-04 
1.47477195991000E-04 1.49998112835000E-04 1.52562121235000E-04 1.55169957780000E-04 
1.57822371651000E-04 1.60520124835000E-04 1.63263992345000E-04 1.66054762441000E-04 
1.68893236856000E-04 1.71780231031000E-04 1.74716574341000E-04 1.77703110343000E-04 
1.80740697009000E-04 1.83830206980000E-04 1.86972527813000E-04 1.90168562234000E-04 
1.93419228404000E-04 1.96725460175000E-04 2.00088207364000E-04 2.03508436023000E-04 
2.06987128718000E-04 2.10525284809000E-04 2.14123920741000E-04 2.17784070332000E-04 
2.21506785072000E-04 2.25293134425000E-04 2.29144206135000E-04 2.33061106543000E-04 
2.37044960896000E-04 2.41096913679000E-04 2.45218128940000E-04 2.49409790625000E-04 
2.53673102916000E-04 2.58009290580000E-04 2.62419599322000E-04 2.66905296136000E-04 
2.71467669677000E-04 2.76108030626000E-04 2.80827712069000E-04 2.85628069880000E-04 
2.90510483108000E-04 2.95476354377000E-04 3.00527110284000E-04 3.05664201814000E-04 
3.10889104755000E-04 3.16203320120000E-04 3.21608374580000E-04 3.27105820902000E-04 
3.32697238397000E-04 3.38384233371000E-04 3.44168439587000E-04 3.50051518735000E-04 
3.56035160911000E-04 3.62121085100000E-04 3.68311039668000E-04 3.74606802872000E-04 
3.81010183360000E-04 3.87523020702000E-04 3.94147185909000E-04 4.00884581974000E-04 
4.07737144423000E-04 4.14706841864000E-04 4.21795676555000E-04 4.29005684982000E-04 
4.36338938441000E-04 4.43797543633000E-04 4.51383643271000E-04 4.59099416696000E-04 
4.66947080499000E-04 4.74928889162000E-04 4.83047135705000E-04 4.91304152343000E-04 
4.99702311157000E-04 5.08244024774000E-04 5.16931747066000E-04 5.25767973845000E-04 
5.34755243589000E-04 5.43896138166000E-04 5.53193283579000E-04 5.62649350718000E-04 
5.72267056128000E-04 5.82049162788000E-04 5.91998480911000E-04 6.02117868741000E-04 
6.12410233383000E-04 6.22878531635000E-04 6.33525770835000E-04 6.44355009730000E-04 
6.55369359351000E-04 6.66571983907000E-04 6.77966101695000E-04 6.89554986025000E-04 
7.01341966159000E-04 7.13330428268000E-04 7.25523816405000E-04 7.37925633496000E-04 
7.50539442341000E-04 7.63368866645000E-04 7.76417592053000E-04 7.89689367210000E-04 
8.03188004841000E-04 8.16917382844000E-04 8.30881445402000E-04 8.45084204122000E-04 
8.59529739181000E-04 8.74222200501000E-04 8.89165808942000E-04 9.04364857514000E-04 
9.19823712609000E-04 9.35546815258000E-04 9.51538682403000E-04 9.67803908198000E-04 
9.84347165329000E-04 1.00117320635000E-03 1.01828686506000E-03 1.03569305789000E-03 
1.05339678528000E-03 1.07140313319000E-03 1.08971727449000E-03 1.10834447047000E-03 
1.12729007238000E-03 1.14655952290000E-03 1.16615835779000E-03 1.18609220741000E-03 
1.20636679837000E-03 1.22698795517000E-03 1.24796160186000E-03 1.26929376377000E-03 
1.29099056922000E-03 1.31305825128000E-03 1.33550314956000E-03 1.35833171206000E-03 
1.38155049697000E-03 1.40516617460000E-03 1.42918552929000E-03 1.45361546132000E-03 
1.47846298895000E-03 1.50373525038000E-03 1.52943950585000E-03 1.55558313970000E-03 
1.58217366248000E-03 1.60921871313000E-03 1.63672606119000E-03 1.66470360897000E-03 
1.69315939388000E-03 1.72210159072000E-03 1.75153851403000E-03 1.78147862045000E-03 
1.81193051121000E-03 1.84290293455000E-03 1.87440478823000E-03 1.90644512214000E-03 
1.93903314085000E-03 1.97217820625000E-03 2.00588984029000E-03 2.04017772766000E-03 
2.07505171861000E-03 2.11052183177000E-03 2.14659825701000E-03 2.18329135840000E-03 
2.22061167714000E-03 2.25856993464000E-03 2.29717703558000E-03 2.33644407103000E-03 
2.37638232166000E-03 2.41700326093000E-03 2.45831855848000E-03 2.50034008337000E-03 
2.54307990759000E-03 2.58655030945000E-03 2.63076377717000E-03 2.67573301241000E-03 
2.72147093397000E-03 2.76799068146000E-03 2.81530561911000E-03 2.86342933959000E-03 
2.91237566791000E-03 2.96215866541000E-03 3.01279263376000E-03 3.06429211914000E-03 
3.11667191635000E-03 3.16994707309000E-03 3.22413289428000E-03 3.27924494647000E-03 
3.33529906227000E-03 3.39231134495000E-03 3.45029817304000E-03 3.50927620502000E-03 
3.56926238415000E-03 3.63027394330000E-03 3.69232840990000E-03 3.75544361100000E-03 
3.81963767839000E-03 3.88492905376000E-03 3.95133649408000E-03 4.01887907690000E-03 
4.08757620592000E-03 4.15744761648000E-03 4.22851338130000E-03 4.30079391618000E-03 
4.37430998593000E-03 4.44908271029000E-03 4.52513357003000E-03 4.60248441307000E-03 
4.68115746082000E-03 4.76117531453000E-03 4.84256096177000E-03 4.92533778306000E-03 
5.00952955860000E-03 5.09516047503000E-03 5.18225513248000E-03 5.27083855154000E-03 
5.36093618053000E-03 5.45257390274000E-03 5.54577804392000E-03 5.64057537982000E-03 
5.73699314387000E-03 5.83505903504000E-03 5.93480122576000E-03 6.03624837002000E-03 
6.13942961164000E-03 6.24437459258000E-03 6.35111346151000E-03 6.45967688243000E-03 