<?xml version="1.0" encoding="UTF-8"?>
<UPF version="2.0.1">
  <PP_INFO><![CDATA[
Generated using "atomic" code by A. Dal Corso  v.6.3MaX
Author: ADC
Generation date: 27May2022
Pseudopotential type: USPP
Element: Ga
Functional: PBE
    Suggested minimum cutoff for wavefunctions:  33. Ry
    Suggested minimum cutoff for charge density: 180. Ry
    The Pseudo was generated with a Scalar-Relativistic Calculation
    Local Potential by smoothing AE potential with Bessel fncs, cutoff radius:   2.0000
    Pseudopotential contains additional information for GIPAW reconstruction.
    Valence configuration:
    nl pn  l   occ       Rcut    Rcut US       E pseu
    4S  1  0  2.00      1.800      2.000    -0.657693
    4P  2  1  1.00      2.300      2.500    -0.189560
    3D  3  2 10.00      1.600      1.900    -1.407825
    Generation configuration:
    4S  1  0  2.00      1.800      2.000    -0.657691
    4S  1  0  0.00      1.800      2.000     3.100000
    4P  2  1  1.00      2.300      2.500    -0.189560
    4P  2  1  0.00      2.300      2.500     6.300000
    3D  3  2 10.00      1.600      1.900    -1.407824
    3D  3  2  0.00      1.600      1.900     1.300000
    Pseudization used: troullier-martins
]]>
    <PP_INPUTFILE><![CDATA[
 &input
   title='Ga',
   zed=31.,
   rel=1,
   config='[Ar] 3d10.0 4s2.0 4p1.0',
   iswitch=3,
   dft='PBE'
 /
 &inputp
   pseudotype=3,
   file_pseudopw='Ga.pbe-dn-rrkjus_psl.0.2.UPF',
   author='ADC',
   lloc=-1,
   rcloc=2.0,
   which_augfun='PSQ',
   rmatch_augfun=1.5,
   nlcc=.true.,
   new_core_ps=.true.,
   rcore=1.0,
   tm=.true.
 /
6
4S  1  0  2.00  0.00  1.80  2.00  0.0
4S  1  0  0.00  3.10  1.80  2.00  0.0
4P  2  1  1.00  0.00  2.30  2.50  0.0
4P  2  1  0.00  6.30  2.30  2.50  0.0
3D  3  2 10.00  0.00  1.60  1.90  0.0
3D  3  2  0.00  1.30  1.60  1.90  0.0
]]></PP_INPUTFILE>
  </PP_INFO>
  <!--
 END OF HUMAN READABLE SECTION 
-->
  <PP_HEADER generated="Generated using &quot;atomic&quot; code by A. Dal Corso  v.6.3MaX" author="ADC" date="27May2022" comment="" element="Ga" pseudo_type="USPP" relativistic="scalar" is_ultrasoft="true" is_paw="false" is_coulomb="false" has_so="false" has_wfc="false" has_gipaw="true" paw_as_gipaw="false" core_correction="true" functional="PBE" z_valence="1.300000000000e1" total_psenergy="-1.725638134010e2" wfc_cutoff="3.344732985863e1" rho_cutoff="1.800168295979e2" l_max="2" l_max_rho="4" l_local="-1" mesh_size="1205" number_of_wfc="3" number_of_proj="6"/>
  <PP_MESH dx="1.250000000000e-2" mesh="1205" xmin="-7.000000000000e0" rmax="1.000000000000e2" zmesh="3.100000000000e1">
    <PP_R>
      2.941554727595213e-5 2.978554931190394e-5 3.016020540053491e-5 3.053957408262109e-5
      3.092371463529097e-5 3.131268708128738e-5 3.170655219834640e-5 3.210537152869391e-5
      3.250920738866163e-5 3.291812287842434e-5 3.333218189185926e-5 3.375144912652963e-5
      3.417599009379387e-5 3.460587112904183e-5 3.504115940205993e-5 3.548192292752639e-5
      3.592823057563881e-5 3.638015208287524e-5 3.683775806289057e-5 3.730112001755025e-5
      3.777031034810240e-5 3.824540236649073e-5 3.872647030680971e-5 3.921358933690369e-5
      3.970683557011228e-5 4.020628607716289e-5 4.071201889821338e-5 4.122411305504595e-5
      4.174264856341445e-5 4.226770644554710e-5 4.279936874280618e-5 4.333771852850732e-5
      4.388283992089980e-5 4.443481809631022e-5 4.499373930245157e-5 4.555969087189940e-5
      4.613276123573788e-5 4.671303993737727e-5 4.730061764654526e-5 4.789558617345441e-5
      4.849803848314750e-5 4.910806871002359e-5 4.972577217254678e-5 5.035124538813975e-5
      5.098458608826507e-5 5.162589323369562e-5 5.227526702997763e-5 5.293280894308793e-5
      5.359862171528818e-5 5.427280938117875e-5 5.495547728395400e-5 5.564673209186265e-5
      5.634668181487483e-5 5.705543582155873e-5 5.777310485617000e-5 5.849980105595534e-5
      5.923563796867443e-5 5.998073057034197e-5 6.073519528319283e-5 6.149914999387343e-5
      6.227271407186159e-5 6.305600838811830e-5 6.384915533397408e-5 6.465227884025287e-5
      6.546550439663657e-5 6.628895907127287e-5 6.712277153062997e-5 6.796707205960111e-5
      6.882199258186156e-5 6.968766668048241e-5 7.056422961880275e-5 7.145181836156506e-5
      7.235057159631624e-5 7.326062975507765e-5 7.418213503628825e-5 7.511523142702302e-5
      7.606006472549138e-5 7.701678256381850e-5 7.798553443111301e-5 7.896647169682526e-5
      7.995974763439867e-5 8.096551744521930e-5 8.198393828286639e-5 8.301516927766775e-5
      8.405937156156446e-5 8.511670829328779e-5 8.618734468385325e-5 8.727144802237506e-5
      8.836918770220542e-5 8.948073524740286e-5 9.060626433953265e-5 9.174595084480542e-5
      9.289997284155621e-5 9.406851064806993e-5 9.525174685075633e-5 9.644986633267937e-5
      9.766305630244565e-5 9.889150632345622e-5 1.001354083435261e-4 1.013949567248768e-4
      1.026703482745054e-4 1.039617822749363e-4 1.052694605153596e-4 1.065935873231607e-4
      1.079343695958475e-4 1.092920168333778e-4 1.106667411708947e-4 1.120587574118727e-4
      1.134682830616816e-4 1.148955383615719e-4 1.163407463230881e-4 1.178041327629143e-4
      1.192859263381591e-4 1.207863585820832e-4 1.223056639402777e-4 1.238440798072956e-4
      1.254018465637461e-4 1.269792076138543e-4 1.285764094234932e-4 1.301937015586955e-4
      1.318313367246473e-4 1.334895708051754e-4 1.351686629027284e-4 1.368688753788626e-4
      1.385904738952367e-4 1.403337274551216e-4 1.420989084454325e-4 1.438862926792904e-4
      1.456961594391182e-4 1.475287915202798e-4 1.493844752752660e-4 1.512635006584391e-4
      1.531661612713380e-4 1.550927544085544e-4 1.570435811041859e-4 1.590189461788726e-4
      1.610191582874263e-4 1.630445299670585e-4 1.650953776862146e-4 1.671720218940234e-4
      1.692747870703672e-4 1.714040017765831e-4 1.735599987068007e-4 1.757431147399266e-4
      1.779536909922830e-4 1.801920728709064e-4 1.824586101275196e-4 1.847536569131802e-4
      1.870775718336175e-4 1.894307180052662e-4 1.918134631120030e-4 1.942261794625987e-4
      1.966692440488915e-4 1.991430386046936e-4 2.016479496654375e-4 2.041843686285725e-4
      2.067526918147220e-4 2.093533205296092e-4 2.119866611267617e-4 2.146531250710056e-4
      2.173531290027570e-4 2.200870948031235e-4 2.228554496598236e-4 2.256586261339358e-4
      2.284970622274879e-4 2.313712014518935e-4 2.342814928972545e-4 2.372283913025302e-4
      2.402123571265915e-4 2.432338566201702e-4 2.462933618987084e-4 2.493913510161313e-4
      2.525283080395411e-4 2.557047231248546e-4 2.589210925933922e-4 2.621779190094262e-4
      2.654757112587107e-4 2.688149846279939e-4 2.721962608855332e-4 2.756200683626241e-4
      2.790869420361495e-4 2.825974236121751e-4 2.861520616105890e-4 2.897514114508102e-4
      2.933960355385750e-4 2.970865033538109e-4 3.008233915396235e-4 3.046072839923939e-4
      3.084387719530163e-4 3.123184540992804e-4 3.162469366394138e-4 3.202248334068068e-4
      3.242527659559221e-4 3.283313636594151e-4 3.324612638064758e-4 3.366431117024034e-4
      3.408775607694405e-4 3.451652726488686e-4 3.495069173043920e-4 3.539031731268222e-4
      3.583547270400744e-4 3.628622746085053e-4 3.674265201455928e-4 3.720481768239878e-4
      3.767279667869500e-4 3.814666212611812e-4 3.862648806710846e-4 3.911234947544548e-4
      3.960432226796270e-4 4.010248331640998e-4 4.060691045946452e-4 4.111768251489377e-4
      4.163487929187055e-4 4.215858160344348e-4 4.268887127916432e-4 4.322583117787364e-4
      4.376954520064817e-4 4.432009830391014e-4 4.487757651270200e-4 4.544206693412818e-4
      4.601365777096533e-4 4.659243833544477e-4 4.717849906320717e-4 4.777193152743355e-4
      4.837282845315393e-4 4.898128373173531e-4 4.959739243555300e-4 5.022125083284545e-4
      5.085295640275641e-4 5.149260785056653e-4 5.214030512311573e-4 5.279614942442075e-4
      5.346024323148791e-4 5.413269031032567e-4 5.481359573215833e-4 5.550306588984317e-4
      5.620120851449521e-4 5.690813269231988e-4 5.762394888165817e-4 5.834876893024616e-4
      5.908270609269089e-4 5.982587504816737e-4 6.057839191833679e-4 6.134037428549115e-4
      6.211194121092558e-4 6.289321325354191e-4 6.368431248868639e-4 6.448536252722397e-4
      6.529648853485287e-4 6.611781725166212e-4 6.694947701193465e-4 6.779159776420009e-4
      6.864431109153928e-4 6.950775023214442e-4 7.038205010013798e-4 7.126734730665305e-4
      7.216378018117936e-4 7.307148879317732e-4 7.399061497396429e-4 7.492130233887605e-4
      7.586369630970680e-4 7.681794413743187e-4 7.778419492521572e-4 7.876259965170980e-4
      7.975331119464323e-4 8.075648435471015e-4 8.177227587975789e-4 8.280084448927882e-4
      8.384235089921079e-4 8.489695784704940e-4 8.596483011727576e-4 8.704613456710478e-4
      8.814104015255669e-4 8.924971795485670e-4 9.037234120716718e-4 9.150908532165518e-4
      9.266012791690139e-4 9.382564884565314e-4 9.500583022292675e-4 9.620085645446357e-4
      9.741091426554355e-4 9.863619273016157e-4 9.987688330057063e-4 1.011331798371964e-3
      1.024052786389289e-3 1.036933784737938e-3 1.049976806100111e-3 1.063183888474431e-3
      1.076557095494390e-3 1.090098516750792e-3 1.103810268118259e-3 1.117694492085840e-3
      1.131753358091776e-3 1.145989062862483e-3 1.160403830755796e-3 1.174999914108524e-3
      1.189779593588387e-3 1.204745178550375e-3 1.219899007397583e-3 1.235243447946602e-3
      1.250780897797484e-3 1.266513784708381e-3 1.282444566974881e-3 1.298575733814124e-3
      1.314909805753750e-3 1.331449335025727e-3 1.348196905965159e-3 1.365155135414075e-3
      1.382326673130329e-3 1.399714202201625e-3 1.417320439464756e-3 1.435148135930113e-3
      1.453200077211543e-3 1.471479083961594e-3 1.489988012312262e-3 1.508729754321257e-3
      1.527707238423901e-3 1.546923429890693e-3 1.566381331290644e-3 1.586083982960438e-3
      1.606034463479482e-3 1.626235890150948e-3 1.646691419488852e-3 1.667404247711271e-3
      1.688377611239754e-3 1.709614787205026e-3 1.731119093959037e-3 1.752893891593467e-3
      1.774942582464750e-3 1.797268611725690e-3 1.819875467863785e-3 1.842766683246300e-3
      1.865945834672209e-3 1.889416543931083e-3 1.913182478368991e-3 1.937247351461546e-3
      1.961614923394128e-3 1.986289001649427e-3 2.011273441602370e-3 2.036572147122528e-3
      2.062189071184115e-3 2.088128216483631e-3 2.114393636065302e-3 2.140989433954376e-3
      2.167919765798379e-3 2.195188839516458e-3 2.222800915956858e-3 2.250760309562699e-3
      2.279071389046117e-3 2.307738578070878e-3 2.336766355943595e-3 2.366159258313617e-3
      2.395921877881739e-3 2.426058865117820e-3 2.456574928987430e-3 2.487474837687636e-3
      2.518763419392038e-3 2.550445563005183e-3 2.582526218926471e-3 2.615010399823652e-3
      2.647903181416090e-3 2.681209703267824e-3 2.714935169590659e-3 2.749084850057319e-3
      2.783664080624855e-3 2.818678264368399e-3 2.854132872325398e-3 2.890033444350475e-3
      2.926385589981050e-3 2.963194989313835e-3 3.000467393892370e-3 3.038208627605700e-3
      3.076424587598376e-3 3.115121245191899e-3 3.154304646817743e-3 3.193980914962138e-3
      3.234156249122702e-3 3.274836926777132e-3 3.316029304364079e-3 3.357739818276344e-3
      3.399974985866591e-3 3.442741406465684e-3 3.486045762413848e-3 3.529894820104806e-3
      3.574295431043031e-3 3.619254532914313e-3 3.664779150669799e-3 3.710876397623627e-3
      3.757553476564421e-3 3.804817680880728e-3 3.852676395700633e-3 3.901137099045700e-3
      3.950207362999418e-3 3.999894854890363e-3 4.050207338490236e-3 4.101152675226954e-3
      4.152738825413040e-3 4.204973849489409e-3 4.257865909284847e-3 4.311423269291307e-3
      4.365654297955248e-3 4.420567468985242e-3 4.476171362675977e-3 4.532474667248973e-3
      4.589486180210118e-3 4.647214809724299e-3 4.705669576007336e-3 4.764859612735383e-3
      4.824794168472101e-3 4.885482608113763e-3 4.946934414352532e-3 5.009159189158162e-3
      5.072166655278312e-3 5.135966657757754e-3 5.200569165476674e-3 5.265984272708336e-3
      5.332222200696340e-3 5.399293299251696e-3 5.467208048370007e-3 5.535977059868995e-3
      5.605611079046618e-3 5.676120986360049e-3 5.747517799125758e-3 5.819812673240996e-3
      5.893016904926929e-3 5.967141932493686e-3 6.042199338127646e-3 6.118200849701140e-3
      6.195158342604975e-3 6.273083841603989e-3 6.351989522715938e-3 6.431887715114037e-3
      6.512790903053402e-3 6.594711727821744e-3 6.677662989714605e-3 6.761657650035414e-3
      6.846708833120745e-3 6.932829828390989e-3 7.020034092426872e-3 7.108335251072065e-3
      7.197747101562252e-3 7.288283614680996e-3 7.379958936942661e-3 7.472787392802866e-3
      7.566783486896704e-3 7.661961906305102e-3 7.758337522849748e-3 7.855925395416799e-3
      7.954740772309890e-3 8.054799093632701e-3 8.156115993701498e-3 8.258707303488066e-3
      8.362589053093277e-3 8.467777474251854e-3 8.574289002868605e-3 8.682140281586577e-3
      8.791348162387504e-3 8.901929709224943e-3 9.013902200690563e-3 9.127283132713970e-3
      9.242090221296454e-3 9.358341405279205e-3 9.476054849146223e-3 9.595248945862604e-3
      9.715942319748462e-3 9.838153829389009e-3 9.961902570581287e-3 1.008720787931787e-2
      1.021408933480817e-2 1.034256676253777e-2 1.047266023736612e-2 1.060439008666336e-2
      1.073777689348644e-2 1.087284149979530e-2 1.100960500970948e-2 1.114808879280563e-2
      1.128831448745663e-2 1.143030400421254e-2 1.157407952922425e-2 1.171966352771005e-2
      1.186707874746588e-2 1.201634822241977e-2 1.216749527623087e-2 1.232054352593384e-2
      1.247551688562908e-2 1.263243957021932e-2 1.279133609919332e-2 1.295223130045699e-2
      1.311515031421288e-2 1.328011859688835e-2 1.344716192511317e-2 1.361630639974727e-2
      1.378757844995893e-2 1.396100483735444e-2 1.413661266015966e-2 1.431442935745419e-2
      1.449448271345877e-2 1.467680086187657e-2 1.486141229028923e-2 1.504834584460802e-2
      1.523763073358112e-2 1.542929653335755e-2 1.562337319210847e-2 1.581989103470666e-2
      1.601888076746483e-2 1.622037348293358e-2 1.642440066475966e-2 1.663099419260530e-2
      1.684018634712956e-2 1.705200981503219e-2 1.726649769416098e-2 1.748368349868346e-2
      1.770360116432344e-2 1.792628505366360e-2 1.815176996151471e-2 1.838009112035235e-2
      1.861128420582215e-2 1.884538534231406e-2 1.908243110860695e-2 1.932245854358406e-2
      1.956550515202043e-2 1.981160891044316e-2 2.006080827306517e-2 2.031314217779388e-2
      2.056865005231528e-2 2.082737182025459e-2 2.108934790741443e-2 2.135461924809143e-2
      2.162322729147225e-2 2.189521400811016e-2 2.217062189648297e-2 2.244949398963362e-2
      2.273187386189399e-2 2.301780563569364e-2 2.330733398845396e-2 2.360050415956909e-2
      2.389736195747477e-2 2.419795376680587e-2 2.450232655564416e-2 2.481052788285713e-2
      2.512260590552919e-2 2.543860938648635e-2 2.575858770191540e-2 2.608259084907912e-2
      2.641066945412847e-2 2.674287478001292e-2 2.707925873449057e-2 2.741987387823866e-2
      2.776477343306639e-2 2.811401129023092e-2 2.846764201885792e-2 2.882572087446825e-2
      2.918830380761161e-2 2.955544747260897e-2 2.992720923640495e-2 3.030364718753147e-2
      3.068482014518433e-2 3.107078766841362e-2 3.146161006543010e-2 3.185734840302846e-2
      3.225806451612903e-2 3.266382101743983e-2 3.307468130723965e-2 3.349070958328469e-2
      3.391197085083951e-2 3.433853093283417e-2 3.477045648014942e-2 3.520781498203071e-2
      3.565067477663381e-2 3.609910506170262e-2 3.655317590538149e-2 3.701295825716363e-2
      3.747852395897689e-2 3.794994575640939e-2 3.842729731007610e-2 3.891065320712841e-2
      3.940008897290871e-2 3.989568108275114e-2 4.039750697393113e-2 4.090564505776517e-2
      4.142017473186263e-2 4.194117639253197e-2 4.246873144734264e-2 4.300292232784527e-2
      4.354383250245174e-2 4.409154648947730e-2 4.464614987034683e-2 4.520772930296689e-2
      4.577637253526639e-2 4.635216841890727e-2 4.693520692316778e-2 4.752557914900051e-2
      4.812337734326680e-2 4.872869491315075e-2 4.934162644075418e-2 4.996226769787526e-2
      5.059071566097320e-2 5.122706852632078e-2 5.187142572534786e-2 5.252388794017778e-2
      5.318455711935898e-2 5.385353649379494e-2 5.453093059287393e-2 5.521684526080211e-2
      5.591138767314182e-2 5.661466635355802e-2 5.732679119077545e-2 5.804787345574868e-2
      5.877802581904871e-2 5.951736236846777e-2 6.026599862684589e-2 6.102405157012162e-2
      6.179163964560956e-2 6.256888279050823e-2 6.335590245064028e-2 6.415282159942876e-2
      6.495976475711217e-2 6.577685801020051e-2 6.660422903117702e-2 6.744200709844700e-2
      6.829032311653789e-2 6.914930963655354e-2 7.001910087688525e-2 7.089983274418397e-2
      7.179164285459578e-2 7.269467055526480e-2 7.360905694610659e-2 7.453494490185498e-2
      7.547247909438683e-2 7.642180601532715e-2 7.738307399893865e-2 7.835643324529963e-2
      7.934203584377260e-2 8.034003579676877e-2 8.135058904381127e-2 8.237385348590086e-2
      8.340998901018860e-2 8.445915751495813e-2 8.552152293492284e-2 8.659725126684103e-2
      8.768651059545308e-2 8.878947111974538e-2 8.990630517954358e-2 9.103718728244193e-2
      9.218229413106986e-2 9.334180465070197e-2 9.451590001721629e-2 9.570476368540220e-2
      9.690858141762684e-2 9.812754131286018e-2 9.936183383606551e-2 1.006116518479611e-1
      1.018771906351538e-1 1.031586479406540e-1 1.044562239947730e-1 1.057701215464088e-1
      1.071005458947275e-1 1.084477049212397e-1 1.098118091222844e-1 1.111930716419186e-1
      1.125917083052207e-1 1.140079376520153e-1 1.154419809710187e-1 1.168940623344174e-1
      1.183644086328789e-1 1.198532496110034e-1 1.213608179032230e-1 1.228873490701504e-1
      1.244330816353862e-1 1.259982571227889e-1 1.275831200942122e-1 1.291879181877203e-1
      1.308129021562799e-1 1.324583259069423e-1 1.341244465405165e-1 1.358115243917406e-1
      1.375198230699620e-1 1.392496095003240e-1 1.410011539654760e-1 1.427747301478044e-1
      1.445706151721956e-1 1.463890896493389e-1 1.482304377195707e-1 1.500949470972732e-1
      1.519829091158305e-1 1.538946187731485e-1 1.558303747777511e-1 1.577904795954518e-1
      1.597752394966166e-1 1.617849646040181e-1 1.638199689412929e-1 1.658805704820094e-1
      1.679670911993500e-1 1.700798571164223e-1 1.722191983571993e-1 1.743854491981021e-1
      1.765789481202324e-1 1.788000378622588e-1 1.810490654739727e-1 1.833263823705144e-1
      1.856323443872816e-1 1.879673118355316e-1 1.903316495586780e-1 1.927257269893007e-1
      1.951499182068694e-1 1.976046019961931e-1 2.000901619066088e-1 2.026069863119086e-1
      2.051554684710267e-1 2.077360065894859e-1 2.103490038816165e-1 2.129948686335624e-1
      2.156740142670733e-1 2.183868594041056e-1 2.211338279322317e-1 2.239153490708721e-1
      2.267318574383645e-1 2.295837931198709e-1 2.324716017361440e-1 2.353957345131560e-1
      2.383566483526016e-1 2.413548059032931e-1 2.443906756334467e-1 2.474647319038848e-1
      2.505774550421541e-1 2.537293314175772e-1 2.569208535172510e-1 2.601525200229960e-1
      2.634248358892789e-1 2.667383124221121e-1 2.700934673589440e-1 2.734908249495607e-1
      2.769309160379966e-1 2.804142781454839e-1 2.839414555544391e-1 2.875129993935077e-1
      2.911294677236817e-1 2.947914256254944e-1 2.984994452873190e-1 3.022541060947721e-1
      3.060559947212428e-1 3.099057052195649e-1 3.138038391148350e-1 3.177510054984058e-1
      3.217478211230557e-1 3.257949104993565e-1 3.298929059932584e-1 3.340424479248934e-1
      3.382441846686313e-1 3.424987727543875e-1 3.468068769702050e-1 3.511691704661338e-1
      3.555863348594066e-1 3.600590603409473e-1 3.645880457832126e-1 3.691739988493910e-1
      3.738176361039807e-1 3.785196831247488e-1 3.832808746161096e-1 3.881019545239206e-1
      3.929836761517249e-1 3.979268022784602e-1 4.029321052776391e-1 4.080003672380394e-1
      4.131323800859046e-1 4.183289457086818e-1 4.235908760803236e-1 4.289189933881545e-1
      4.343141301613454e-1 4.397771294009924e-1 4.453088447118418e-1 4.509101404356660e-1
      4.565818917863163e-1 4.623249849864822e-1 4.681403174061589e-1 4.740287977028691e-1
      4.799913459636403e-1 4.860288938487675e-1 4.921423847373929e-1 4.983327738749041e-1
      5.046010285221991e-1 5.109481281068204e-1 5.173750643759895e-1 5.238828415515760e-1
      5.304724764870020e-1 5.371449988261336e-1 5.439014511641629e-1 5.507428892105116e-1
      5.576703819537956e-1 5.646850118288481e-1 5.717878748858594e-1 5.789800809616342e-1
      5.862627538530022e-1 5.936370314924217e-1 6.011040661257747e-1 6.086650244924156e-1
      6.163210880074733e-1 6.240734529464457e-1 6.319233306321297e-1 6.398719476238817e-1
      6.479205459092796e-1 6.560703830981815e-1 6.643227326192269e-1 6.726788839188204e-1
      6.811401426626008e-1 6.897078309394626e-1 6.983832874681315e-1 7.071678678063378e-1
      7.160629445626343e-1 7.250699076108589e-1 7.341901643073139e-1 7.434251397106645e-1
      7.527762768046039e-1 7.622450367233307e-1 7.718328989798437e-1 7.815413616971284e-1
      7.913719418422379e-1 8.013261754633177e-1 8.114056179296258e-1 8.216118441745515e-1
      8.319464489417117e-1 8.424110470341288e-1 8.530072735665421e-1 8.637367842209082e-1
      8.746012555050939e-1 8.856023850148420e-1 8.967418916990223e-1 9.080215161282148e-1
      9.194430207666876e-1 9.310081902477753e-1 9.427188316527401e-1 9.545767747931285e-1
      9.665838724966783e-1 9.787420008968374e-1 9.910530597259012e-1 1.003518972611860e0
      1.016141687378967e0 1.028923176352081e0 1.041865436664862e0 1.054970490571812e0
      1.068240385764268e0 1.081677195690354e0 1.095283019878953e0 1.109059984267782e0
      1.123010241535550e0 1.137135971438340e0 1.151439381150191e0 1.165922705607966e0
      1.180588207860582e0 1.195438179422600e0 1.210474940632290e0 1.225700841014187e0
      1.241118259646198e0 1.256729605531355e0 1.272537317974211e0 1.288543866961998e0
      1.304751753550562e0 1.321163510255155e0 1.337781701446155e0 1.354608923749742e0
      1.371647806453638e0 1.388901011917934e0 1.406371235991081e0 1.424061208431138e0
      1.441973693332286e0 1.460111489556734e0 1.478477431172049e0 1.497074387893967e0
      1.515905265534818e0 1.534973006457539e0 1.554280590035446e0 1.573831033117757e0
      1.593627390500974e0 1.613672755406220e0 1.633970259962538e0 1.654523075696313e0
      1.675334414026822e0 1.696407526768015e0 1.717745706636635e0 1.739352287766696e0
      1.761230646230459e0 1.783384200565951e0 1.805816412311102e0 1.828530786544641e0
      1.851530872433750e0 1.874820263788645e0 1.898402599624112e0 1.922281564728096e0
      1.946460890237486e0 1.970944354221077e0 1.995735782269932e0 2.020839048095126e0
      2.046258074133011e0 2.071996832158127e0 2.098059343903774e0 2.124449681690442e0
      2.151171969062104e0 2.178230381430521e0 2.205629146727685e0 2.233372546066408e0
      2.261464914409286e0 2.289910641246030e0 2.318714171279325e0 2.347880005119347e0
      2.377412699986963e0 2.407316870425836e0 2.437597189023441e0 2.468258387141158e0
      2.499305255653580e0 2.530742645697070e0 2.562575469427785e0 2.594808700789204e0
      2.627447376289295e0 2.660496595787520e0 2.693961523291654e0 2.727847387764710e0
      2.762159483941957e0 2.796903173158223e0 2.832083884185642e0 2.867707114081881e0
      2.903778429049091e0 2.940303465303627e0 2.977287929956706e0 3.014737601906186e0
      3.052658332739489e0 3.091056047647964e0 3.129936746352692e0 3.169306504041938e0
      3.209171472320450e0 3.249537880170617e0 3.290412034925796e0 3.331800323255834e0
      3.373709212164975e0 3.416145250002388e0 3.459115067485309e0 3.502625378735148e0
      3.546682982326568e0 3.591294762349753e0 3.636467689486107e0 3.682208822097389e0
      3.728525307328634e0 3.775424382224900e0 3.822913374862043e0 3.870999705491792e0
      3.919690887701128e0 3.968994529586340e0 4.018918334941789e0 4.069470104463618e0
      4.120657736968679e0 4.172489230628677e0 4.224972684219955e0 4.278116298388925e0
      4.331928376933404e0 4.386417328100165e0 4.441591665898668e0 4.497460011431457e0
      4.554031094241194e0 4.611313753674645e0 4.669316940263908e0 4.728049717124877e0
      4.787521261373438e0 4.847740865559387e0 4.908717939118374e0 4.970462009842223e0
      5.032982725367584e0 5.096289854683467e0 5.160393289657635e0 5.225303046582205e0
      5.291029267738773e0 5.357582222983100e0 5.424972311349853e0 5.493210062677456e0
      5.562306139253366e0 5.632271337480144e0 5.703116589562337e0 5.774852965214731e0
      5.847491673391979e0 5.921044064039999e0 5.995521629869494e0 6.070936008151628e0
      6.147298982536451e0 6.224622484894083e0 6.302918597179063e0 6.382199553318250e0
      6.462477741122317e0 6.543765704221448e0 6.626076144025269e0 6.709421921707440e0
      6.793816060215314e0 6.879271746304711e0 6.965802332600455e0 7.053421339682716e0
      7.142142458199586e0 7.231979551006364e0 7.322946655331552e0 7.415057984970285e0
      7.508327932505235e0 7.602771071555440e0 7.698402159053544e0 7.795236137551509e0
      7.893288137555496e0 7.992573479890011e0 8.093107678091760e0 8.194906440833783e0
      8.297985674379838e0 8.402361485069896e0 8.508050181836749e0 8.615068278754263e0
      8.723432497617839e0 8.833159770557115e0 8.944267242681741e0 9.056772274760307e0
      9.170692445932934e0 9.286045556458173e0 9.402849630494199e0 9.521122918915236e0
      9.640883902163244e0 9.762151293135480e0 9.884944040108534e0 1.000928132969892e1
      1.013518258986110e1 1.026266749292317e1 1.039175595866053e1 1.052246815740866e1
      1.065482451321448e1 1.078884570702791e1 1.092455267993315e1 1.106196663642079e1
      1.120110904770113e1 1.134200165505899e1 1.148466647325094e1 1.162912579394509e1
      1.177540218920416e1 1.192351851501256e1 1.207349791484749e1 1.222536382329534e1
      1.237913996971330e1 1.253485038193706e1 1.269251939003537e1 1.285217163011148e1
      1.301383204815274e1 1.317752590392841e1 1.334327877493641e1 1.351111656040014e1
      1.368106548531499e1 1.385315210454626e1 1.402740330697834e1 1.420384631971610e1
      1.438250871233928e1 1.456341840121018e1 1.474660365383578e1 1.493209309328450e1
      1.511991570265861e1 1.531010082962300e1 1.550267819099063e1 1.569767787736604e1
      1.589513035784699e1 1.609506648478523e1 1.629751749860740e1 1.650251503269627e1
      1.671009111833361e1 1.692027818970518e1 1.713310908896843e1 1.734861707138443e1
      1.756683581051385e1 1.778779940347867e1 1.801154237628987e1 1.823809968924210e1
      1.846750674237651e1 1.869979938101182e1 1.893501390134545e1 1.917318705612478e1
      1.941435606038975e1 1.965855859728801e1 1.990583282396270e1 2.015621737751487e1
      2.040975138104046e1 2.066647444974326e1 2.092642669712513e1 2.118964874125354e1
      2.145618171110845e1 2.172606725300869e1 2.199934753711921e1 2.227606526404046e1
      2.255626367148019e1 2.283998654100966e1 2.312727820490451e1 2.341818355307166e1
      2.371274804006368e1 2.401101769218087e1 2.431303911466327e1 2.461885949897264e1
      2.492852663016613e1 2.524208889436311e1 2.555959528630523e1 2.588109541701223e1
      2.620663952153368e1 2.653627846679814e1 2.687006375956158e1 2.720804755445496e1
      2.755028266213392e1 2.789682255753038e1 2.824772138820793e1 2.860303398282288e1
      2.896281585969092e1 2.932712323546233e1 2.969601303390584e1 3.006954289480285e1
      3.044777118295419e1 3.083075699729928e1 3.121856018015086e1 3.161124132654530e1
      3.200886179371052e1 3.241148371065361e1 3.281916998786810e1 3.323198432716432e1
      3.364999123162271e1 3.407325601567242e1 3.450184481529723e1 3.493582459836891e1
      3.537526317511157e1 3.582022920869694e1 3.627079222597292e1 3.672702262832778e1
      3.718899170268996e1 3.765677163266727e1 3.813043550982555e1 3.861005734510915e1
      3.909571208040576e1 3.958747560025570e1 4.008542474370954e1 4.058963731633408e1
      4.110019210236948e1 4.161716887703995e1 4.214064841901815e1 4.267071252304766e1
      4.320744401272321e1 4.375092675343189e1 4.430124566545782e1 4.485848673725049e1
      4.542273703886115e1 4.599408473554749e1 4.657261910154937e1 4.715843053403868e1
      4.775161056724343e1 4.835225188675071e1 4.896044834398881e1 4.957629497089137e1
      5.019988799474697e1 5.083132485323413e1 5.147070420964675e1 5.211812596831017e1
      5.277369129019120e1 5.343750260870532e1 5.410966364572141e1 5.479027942776910e1
      5.547945630244917e1 5.617730195505024e1 5.688392542537548e1 5.759943712477958e1
      5.832394885342140e1 5.905757381773266e1 5.980042664810640e1 6.055262341680894e1
      6.131428165611551e1 6.208552037667572e1 6.286646008610887e1 6.365722280783316e1
      6.445793210013294e1 6.526871307546391e1 6.608969242000317e1 6.692099841344366e1
      6.776276094903799e1 6.861511155389512e1 6.947818340953098e1 7.035211137267900e1
      7.123703199636164e1 7.213308355122644e1 7.304040604715216e1 7.395914125512447e1
      7.488943272938894e1 7.583142582988121e1 7.678526774493955e1 7.775110751430399e1
      7.872909605240325e1 7.971938617193629e1 8.072213260774921e1 8.173749204101240e1
      8.276562312370334e1 8.380668650339519e1 8.486084484835922e1 8.592826287298168e1
      8.700910736350032e1 8.810354720406606e1 8.921175340313033e1 9.033389912016657e1
      9.147015969272623e1 9.262071266383520e1 9.378573780973639e1 9.496541716797871e1
      9.615993506586221e1 9.736947814923880e1 9.859423541167580e1 9.983439822398758e1
      1.010901603641363e2
      </PP_R>
    <PP_RAB>
      3.676943409494017e-7 3.723193663987994e-7 3.770025675066863e-7 3.817446760327637e-7
      3.865464329411371e-7 3.914085885160924e-7 3.963319024793300e-7 4.013171441086739e-7
      4.063650923582704e-7 4.114765359803042e-7 4.166522736482408e-7 4.218931140816204e-7
      4.271998761724234e-7 4.325733891130229e-7 4.380144925257491e-7 4.435240365940799e-7
      4.491028821954852e-7 4.547519010359405e-7 4.604719757861321e-7 4.662640002193781e-7
      4.721288793512800e-7 4.780675295811342e-7 4.840808788351215e-7 4.901698667112964e-7
      4.963354446264037e-7 5.025785759645362e-7 5.089002362276672e-7 5.153014131880743e-7