<?xml version="1.0" encoding="UTF-8"?>
<UPF version="2.0.1">
  <PP_INFO><![CDATA[
Generated using "atomic" code by A. Dal Corso  v.6.3MaX
Author: ADC
Generation date: 27May2022
Pseudopotential type: USPP
Element: Hg
Functional: PBE
    Suggested minimum cutoff for wavefunctions:  29. Ry
    Suggested minimum cutoff for charge density: 119. Ry
    The Pseudo was generated with a Scalar-Relativistic Calculation
    Local Potential by smoothing AE potential with Bessel fncs, cutoff radius:   1.9000
    Pseudopotential contains additional information for GIPAW reconstruction.
    Valence configuration:
    nl pn  l   occ       Rcut    Rcut US       E pseu
    6S  1  0  2.00      2.000      2.100    -0.501002
    6P  2  1  0.00      2.100      2.300    -0.076873
    5D  3  2 10.00      1.800      2.200    -0.724704
    Generation configuration:
    6S  1  0  2.00      2.000      2.100    -0.501000
    6S  1  0  0.00      1.700      2.100     2.300000
    6P  2  1  0.00      2.100      2.300    -0.076873
    6P  2  1  0.00      1.800      2.300     8.000000
    5D  3  2 10.00      1.800      2.200    -0.724703
    5D  3  2  0.00      1.800      2.200     4.300000
    Pseudization used: troullier-martins
]]>
    <PP_INPUTFILE><![CDATA[
 &input
   title='Hg',
   zed=80.0,
   rel=1,
   config='[Xe] 4f14. 5d10 6s2 6p0.0',
   iswitch=3,
   dft='PBE'
 /
 &inputp
   pseudotype=3,
   file_pseudopw='Hg.pbe-dn-rrkjus_psl.0.2.2.UPF',
   author='ADC',
   lloc=-1,
   rcloc=1.9,
   which_augfun='PSQ',
   rmatch_augfun=1.9,
   nlcc=.true.,
   new_core_ps=.true.,
   rcore=1.5,
   tm=.true.
 /
6
6S  1  0  2.00  0.00  2.00  2.10  0.0
6S  1  0  0.00  2.30  1.70  2.10  0.0
6P  2  1  0.00  0.00  2.10  2.30  0.0
6P  2  1  0.00  8.00  1.80  2.30  0.0
5D  3  2 10.00  0.00  1.80  2.20  0.0
5D  3  2  0.00  4.30  1.80  2.20  0.0
]]></PP_INPUTFILE>
  </PP_INFO>
  <!--
 END OF HUMAN READABLE SECTION 
-->
  <PP_HEADER generated="Generated using &quot;atomic&quot; code by A. Dal Corso  v.6.3MaX" author="ADC" date="27May2022" comment="" element="Hg" pseudo_type="USPP" relativistic="scalar" is_ultrasoft="true" is_paw="false" is_coulomb="false" has_so="false" has_wfc="false" has_gipaw="true" paw_as_gipaw="false" core_correction="true" functional="PBE" z_valence="1.200000000000e1" total_psenergy="-1.062840660643e2" wfc_cutoff="2.891663789073e1" rho_cutoff="1.188260523544e2" l_max="2" l_max_rho="4" l_local="-1" mesh_size="1279" number_of_wfc="3" number_of_proj="6"/>
  <PP_MESH dx="1.250000000000e-2" mesh="1279" xmin="-7.000000000000e0" rmax="1.000000000000e2" zmesh="8.000000000000e1">
    <PP_R>
      1.139852456943145e-5 1.154190035836278e-5 1.168707959270728e-5 1.183408495701567e-5
      1.198293942117524e-5 1.213366624399886e-5 1.228628897685923e-5 1.244083146736889e-5
      1.259731786310638e-5 1.275577261538943e-5 1.291622048309546e-5 1.307868653653023e-5
      1.324319616134513e-5 1.340977506250371e-5 1.357844926829822e-5 1.374924513441648e-5
      1.392218934806004e-5 1.409730893211416e-5 1.427463124937009e-5 1.445418400680072e-5
      1.463599525988968e-5 1.482009341701516e-5 1.500650724388876e-5 1.519526586805018e-5
      1.538639878341851e-5 1.557993585490062e-5 1.577590732305768e-5 1.597434380883031e-5
      1.617527631832310e-5 1.637873624764950e-5 1.658475538783739e-5 1.679336592979658e-5
      1.700460046934867e-5 1.721849201232021e-5 1.743507397969999e-5 1.765438021286102e-5
      1.787644497884843e-5 1.810130297573370e-5 1.832898933803629e-5 1.855953964221359e-5
      1.879298991221965e-5 1.902937662513415e-5 1.926873671686188e-5 1.951110758790415e-5
      1.975652710920271e-5 2.000503362805706e-5 2.025666597411633e-5 2.051146346544658e-5
      2.076946591467418e-5 2.103071363520677e-5 2.129524744753217e-5 2.156310868559678e-5
      2.183433920326400e-5 2.210898138085401e-5 2.238707813176588e-5 2.266867290918269e-5
      2.295380971286134e-5 2.324253309600751e-5 2.353488817223722e-5 2.383092062262596e-5
      2.413067670284637e-5 2.443420325039583e-5 2.474154769191496e-5 2.505275805059799e-5
      2.536788295369667e-5 2.568697164011823e-5 2.601007396811912e-5 2.633724042309542e-5
      2.666852212547135e-5 2.700397083868693e-5 2.734363897728607e-5 2.768757961510646e-5
      2.803584649357254e-5 2.838849403009259e-5 2.874557732656170e-5 2.910715217797142e-5
      2.947327508112791e-5 2.984400324347967e-5 3.021939459205629e-5 3.059950778251979e-5
      3.098440220832948e-5 3.137413801002249e-5 3.176877608461073e-5 3.216837809509625e-5
      3.257300648010623e-5 3.298272446364902e-5 3.339759606499313e-5 3.381768610867032e-5
      3.424306023460461e-5 3.467378490836860e-5 3.510992743156891e-5 3.555155595236209e-5
      3.599873947610304e-5 3.645154787612710e-5 3.691005190466808e-5 3.737432320391325e-5
      3.784443431719769e-5 3.832045870033929e-5 3.880247073311636e-5 3.929054573088976e-5
      3.978475995637083e-5 4.028519063153783e-5 4.079191594970186e-5 4.130501508772477e-5
      4.182456821839090e-5 4.235065652293390e-5 4.288336220372168e-5 4.342276849710067e-5
      4.396895968640161e-5 4.452202111510912e-5 4.508203920019663e-5 4.564910144562929e-5
      4.622329645603665e-5 4.680471395055726e-5 4.739344477685759e-5 4.798958092532704e-5
      4.859321554345163e-5 4.920444295036853e-5 4.982335865160364e-5 5.045005935399448e-5
      5.108464298080083e-5 5.172720868700546e-5 5.237785687480724e-5 5.303668920930925e-5
      5.370380863440425e-5 5.437931938885962e-5 5.506332702260508e-5 5.575593841322503e-5
      5.645726178265833e-5 5.716740671410841e-5 5.788648416916558e-5 5.861460650514514e-5
      5.935188749264347e-5 6.009844233331483e-5 6.085438767787203e-5 6.161984164431313e-5
      6.239492383637772e-5 6.317975536223518e-5 6.397445885340814e-5 6.477915848393407e-5
      6.559397998976730e-5 6.641905068842595e-5 6.725449949888525e-5 6.810045696172157e-5
      6.895705525950964e-5 6.982442823747625e-5 7.070271142441385e-5 7.159204205385733e-5
      7.249255908552676e-5 7.340440322704065e-5 7.432771695590118e-5 7.526264454175699e-5
      7.620933206894548e-5 7.716792745931876e-5 7.813858049535702e-5 7.912144284357183e-5
      8.011666807820479e-5 8.112441170522358e-5 8.214483118662017e-5 8.317808596501468e-5
      8.422433748856834e-5 8.528374923621032e-5 8.635648674318166e-5 8.744271762690014e-5
      8.854261161315156e-5 8.965634056260875e-5 9.078407849768613e-5 9.192600162973045e-5
      9.308228838655420e-5 9.425311944031595e-5 9.543867773574952e-5 9.663914851875088e-5
      9.785471936532218e-5 9.908558021088119e-5 1.003319233799395e-4 1.015939436161526e-4
      1.028718381127504e-4 1.041658065433476e-4 1.054760510931441e-4 1.068027764905168e-4
      1.081461900390079e-4 1.095065016497178e-4 1.108839238741032e-4 1.122786719371889e-4
      1.136909637711978e-4 1.151210200496017e-4 1.165690642216041e-4 1.180353225470526e-4
      1.195200241317938e-4 1.210234009634712e-4 1.225456879477729e-4 1.240871229451376e-4
      1.256479468079198e-4 1.272284034180234e-4 1.288287397250094e-4 1.304492057846813e-4
      1.320900547981582e-4 1.337515431514366e-4 1.354339304554519e-4 1.371374795866436e-4
      1.388624567280289e-4 1.406091314107958e-4 1.423777765564172e-4 1.441686685192953e-4
      1.459820871299431e-4 1.478183157387077e-4 1.496776412600453e-4 1.515603542173513e-4
      1.534667487883554e-4 1.553971228510887e-4 1.573517780304250e-4 1.593310197452134e-4
      1.613351572559984e-4 1.633645037133435e-4 1.654193762067617e-4 1.675000958142603e-4
      1.696069876525117e-4 1.717403809276518e-4 1.739006089867202e-4 1.760880093697467e-4
      1.783029238624907e-4 1.805456985498485e-4 1.828166838699278e-4 1.851162346688050e-4
      1.874447102559715e-4 1.898024744604743e-4 1.921898956877679e-4 1.946073469772762e-4
      1.970552060606811e-4 1.995338554209453e-4 2.020436823520734e-4 2.045850790196303e-4
      2.071584425220157e-4 2.097641749525120e-4 2.124026834621136e-4 2.150743803231423e-4
      2.177796829936689e-4 2.205190141827396e-4 2.232928019164254e-4 2.261014796047039e-4
      2.289454861091772e-4 2.318252658116485e-4 2.347412686835551e-4 2.376939503562782e-4
      2.406837721923366e-4 2.437112013574749e-4 2.467767108936598e-4 2.498807797929929e-4
      2.530238930725549e-4 2.562065418501907e-4 2.594292234212467e-4 2.626924413362754e-4
      2.659967054797147e-4 2.693425321495597e-4 2.727304441380347e-4 2.761609708132806e-4
      2.796346482020700e-4 2.831520190735621e-4 2.867136330241116e-4 2.903200465631446e-4
      2.939718232001138e-4 2.976695335325485e-4 3.014137553352109e-4 3.052050736503754e-4
      3.090440808792425e-4 3.129313768745019e-4 3.168675690340618e-4 3.208532723959554e-4
      3.248891097344418e-4 3.289757116573164e-4 3.331137167044436e-4 3.373037714475311e-4
      3.415465305911572e-4 3.458426570750697e-4 3.501928221777728e-4 3.545977056214137e-4
      3.590579956779929e-4 3.635743892769060e-4 3.681475921138411e-4 3.727783187610464e-4
      3.774672927789813e-4 3.822152468293761e-4 3.870229227897113e-4 3.918910718691361e-4
      3.968204547258494e-4 4.018118415859508e-4 4.068660123637929e-4 4.119837567838420e-4
      4.171658745040760e-4 4.224131752409320e-4 4.277264788958254e-4 4.331066156832629e-4
      4.385544262605629e-4 4.440707618592120e-4 4.496564844178708e-4 4.553124667170529e-4
      4.610395925155002e-4 4.668387566882703e-4 4.727108653665636e-4 4.786568360793082e-4
      4.846775978965251e-4 4.907740915744977e-4 4.969472697027665e-4 5.031980968529732e-4
      5.095275497295778e-4 5.159366173224694e-4 5.224263010614989e-4 5.289976149729539e-4
      5.356515858380022e-4 5.423892533531296e-4 5.492116702925927e-4 5.561199026729190e-4
      5.631150299194728e-4 5.701981450351176e-4 5.773703547710015e-4 5.846327797994872e-4
      5.919865548892616e-4 5.994328290826434e-4 6.069727658751246e-4 6.146075433971698e-4
      6.223383545982994e-4 6.301664074334923e-4 6.380929250519301e-4 6.461191459881177e-4
      6.542463243554048e-4 6.624757300419475e-4 6.708086489091267e-4 6.792463829924687e-4
      6.877902507050909e-4 6.964415870437051e-4 7.052017437972169e-4 7.140720897579412e-4
      7.230540109354811e-4 7.321489107732946e-4 7.413582103679840e-4 7.506833486913493e-4
      7.601257828152247e-4 7.696869881391530e-4 7.793684586209181e-4 7.891717070099796e-4
      7.990982650838446e-4 8.091496838874070e-4 8.193275339753045e-4 8.296334056573206e-4
      8.400689092468719e-4 8.506356753126274e-4 8.613353549332823e-4 8.721696199555458e-4
      8.831401632553703e-4 8.942486990024651e-4 9.054969629281430e-4 9.168867125965265e-4
      9.284197276791739e-4 9.400978102331553e-4 9.519227849826290e-4 9.638964996039590e-4
      9.760208250144146e-4 9.882976556645085e-4 1.000728909834008e-3 1.013316529931665e-3
      1.026062482798735e-3 1.038968760016282e-3 1.052037378216380e-3 1.065270379397211e-3
      1.078669831242131e-3 1.092237827442755e-3 1.105976488026091e-3 1.119887959685809e-3
      1.133974416117657e-3 1.148238058359111e-3 1.162681115133294e-3 1.177305843197209e-3
      1.192114527694371e-3 1.207109482511861e-3 1.222293050641876e-3 1.237667604547829e-3
      1.253235546535047e-3 1.268999309126139e-3 1.284961355441081e-3 1.301124179582083e-3
      1.317490307023304e-3 1.334062295005453e-3 1.350842732935366e-3 1.367834242790612e-3
      1.385039479529174e-3 1.402461131504297e-3 1.420101920884547e-3 1.437964604079156e-3
      1.456051972168713e-3 1.474366851341282e-3 1.492912103333995e-3 1.511690625880209e-3
      1.530705353162274e-3 1.549959256270016e-3 1.569455343664966e-3 1.589196661650445e-3
      1.609186294847553e-3 1.629427366677146e-3 1.649923039847878e-3 1.670676516850381e-3
      1.691691040457659e-3 1.712969894231781e-3 1.734516403036941e-3 1.756333933558977e-3
      1.778425894831421e-3 1.800795738768166e-3 1.823446960702843e-3 1.846383099934961e-3
      1.869607740282939e-3 1.893124510644084e-3 1.916937085561606e-3 1.941049185798788e-3
      1.965464578920346e-3 1.990187079881130e-3 2.015220551622211e-3 2.040568905674480e-3
      2.066236102769832e-3 2.092226153460032e-3 2.118543118743377e-3 2.145191110699236e-3
      2.172174293130564e-3 2.199496882214519e-3 2.227163147161231e-3 2.255177410880886e-3
      2.283544050659184e-3 2.312267498841303e-3 2.341352243524463e-3 2.370802829259191e-3
      2.400623857759428e-3 2.430819988621546e-3 2.461395940052426e-3 2.492356489606689e-3
      2.523706474933193e-3 2.555450794530926e-3 2.587594408514410e-3 2.620142339388722e-3
      2.653099672834289e-3 2.686471558501508e-3 2.720263210815412e-3 2.754479909790425e-3
      2.789127001855372e-3 2.824209900688886e-3 2.859734088065281e-3 2.895705114711111e-3
      2.932128601172473e-3 2.969010238693226e-3 3.006355790104277e-3 3.044171090724010e-3
      3.082462049270083e-3 3.121234648782671e-3 3.160494947559331e-3 3.200249080101626e-3
      3.240503258073645e-3 3.281263771272592e-3 3.322536988611585e-3 3.364329359114798e-3
      3.406647412925158e-3 3.449497762324665e-3 3.492887102767593e-3 3.536822213926663e-3
      3.581309960752376e-3 3.626357294545692e-3 3.671971254044162e-3 3.718158966521759e-3
      3.764927648902528e-3 3.812284608888241e-3 3.860237246100249e-3 3.908793053235673e-3
      3.957959617238167e-3 4.007744620483386e-3 4.058155841979372e-3 4.109201158582051e-3
      4.160888546225996e-3 4.213226081170681e-3 4.266221941262424e-3 4.319884407212182e-3
      4.374221863889443e-3 4.429242801632361e-3 4.484955817574398e-3 4.541369616987644e-3
      4.598493014643029e-3 4.656334936187663e-3 4.714904419539463e-3 4.774210616299364e-3
      4.834262793181269e-3 4.895070333459987e-3 4.956642738437412e-3 5.018989628927085e-3
      5.082120746757491e-3 5.146045956294234e-3 5.210775245981355e-3 5.276318729902069e-3
      5.342686649359085e-3 5.409889374474844e-3 5.477937405811870e-3 5.546841376013498e-3
      5.616612051465271e-3 5.687260333977171e-3 5.758797262487077e-3 5.831234014785609e-3
      5.904581909262684e-3 5.978852406676052e-3 6.054057111942033e-3 6.130207775948831e-3
      6.207316297392623e-3 6.285394724636761e-3 6.364455257594366e-3 6.444510249634554e-3
      6.525572209512704e-3 6.607653803324971e-3 6.690767856487378e-3 6.774927355739840e-3
      6.860145451175333e-3 6.946435458294646e-3 7.033810860086952e-3 7.122285309136538e-3
      7.211872629756084e-3 7.302586820146701e-3 7.394442054585193e-3 7.487452685638822e-3
      7.581633246407917e-3 7.676998452796724e-3 7.773563205812755e-3 7.871342593895130e-3
      7.970351895272174e-3 8.070606580348651e-3 8.172122314123092e-3 8.274914958635428e-3
      8.379000575445495e-3 8.484395428142687e-3 8.591115984887153e-3 8.699178920983027e-3
      8.808601121483921e-3 8.919399683831287e-3 9.031591920525909e-3 9.145195361833023e-3
      9.260227758521475e-3 9.376707084637276e-3 9.494651540312111e-3 9.614079554607137e-3
      9.735009788392562e-3 9.857461137263460e-3 9.981452734492215e-3 1.010700395401816e-2
      1.023413441347478e-2 1.036286397725501e-2 1.049321275961509e-2 1.062520112781748e-2
      1.075884970531323e-2 1.089417937496448e-2 1.103121128230744e-2 1.116996683885645e-2
      1.131046772544950e-2 1.145273589563598e-2 1.159679357910692e-2 1.174266328516845e-2
      1.189036780625893e-2 1.203993022151028e-2 1.219137390035417e-2 1.234472250617352e-2
      1.250000000000000e-2 1.265723064425793e-2 1.281643900655537e-2 1.297764996352282e-2
      1.314088870470031e-2 1.330618073647324e-2 1.347355188605790e-2 1.364302830553690e-2
      1.381463647594560e-2 1.398840321140977e-2 1.416435566333533e-2 1.434252132465090e-2
      1.452292803410354e-2 1.470560398060864e-2 1.489057770765449e-2 1.507787811776226e-2
      1.526753447700213e-2 1.545957641956607e-2 1.565403395239831e-2 1.585093745988400e-2
      1.605031770859677e-2 1.625220585210614e-2 1.645663343584527e-2 1.666363240204005e-2
      1.687323509470005e-2 1.708547426467245e-2 1.730038307475940e-2 1.751799510489968e-2
      1.773834435741573e-2 1.796146526232656e-2 1.818739268272751e-2 1.841616192023770e-2
      1.864780872051588e-2 1.888236927884592e-2 1.911988024579225e-2 1.936037873292666e-2
      1.960390231862712e-2 1.985048905394930e-2 2.010017746857229e-2 2.035300657681889e-2
      2.060901588375160e-2 2.086824539134554e-2 2.113073560473865e-2 2.139652753856081e-2
      2.166566272334245e-2 2.193818321200373e-2 2.221413158642549e-2 2.249355096410262e-2
      2.277648500488137e-2 2.306297791778126e-2 2.335307446790278e-2 2.364681998342213e-2
      2.394426036267371e-2 2.424544208132194e-2 2.455041219962311e-2 2.485921836977865e-2
      2.517190884338096e-2 2.548853247895270e-2 2.580913874958109e-2 2.613377775064821e-2
      2.646250020765843e-2 2.679535748416449e-2 2.713240158979304e-2 2.747368518837129e-2
      2.781926160615587e-2 2.816918484016511e-2 2.852350956661630e-2 2.888229114946881e-2
      2.924558564907490e-2 2.961344983093927e-2 2.998594117458873e-2 3.036311788255361e-2
      3.074503888946189e-2 3.113176387124790e-2 3.152335325447687e-2 3.191986822578659e-2
      3.232137074144808e-2 3.272792353704628e-2 3.313959013728260e-2 3.355643486590090e-2
      3.397852285573806e-2 3.440592005890134e-2 3.483869325707314e-2 3.527691007194624e-2
      3.572063897578958e-2 3.616994930214701e-2 3.662491125667131e-2 3.708559592809336e-2
      3.755207529933040e-2 3.802442225873332e-2 3.850271061147539e-2 3.898701509108494e-2
      3.947741137112211e-2 3.997397607700343e-2 4.047678679797454e-2 4.098592209923342e-2
      4.150146153420689e-2 4.202348565698038e-2 4.255207603488522e-2 4.308731526124347e-2
      4.362928696827302e-2 4.417807584015591e-2 4.473376762626975e-2 4.529644915458676e-2
      4.586620834524059e-2 4.644313422426380e-2 4.702731693749893e-2 4.761884776468328e-2
      4.821781913371216e-2 4.882432463508069e-2 4.943845903650722e-2 5.006031829774162e-2
      5.068999958555845e-2 5.132760128894014e-2 5.197322303445013e-2 5.262696570179950e-2
      5.328893143961028e-2 5.395922368137556e-2 5.463794716162196e-2 5.532520793227422e-2
      5.602111337922580e-2 5.672577223911884e-2 5.743929461633362e-2 5.816179200019336e-2
      5.889337728238431e-2 5.963416477459504e-2 6.038427022637855e-2 6.114381084323758e-2
      6.191290530493891e-2 6.269167378405704e-2 6.348023796475102e-2 6.427872106177865e-2
      6.508724783974813e-2 6.590594463261362e-2 6.673493936341474e-2 6.757436156426458e-2
      6.842434239659006e-2 6.928501467162530e-2 7.015651287116444e-2 7.103897316857434e-2
      7.193253345007165e-2 7.283733333626849e-2 7.375351420398772e-2 7.468121920835403e-2
      7.562059330516188e-2 7.657178327352483e-2 7.753493773881091e-2 7.851020719586456e-2
      7.949774403252286e-2 8.049770255342580e-2 8.151023900412641e-2 8.253551159550543e-2
      8.357368052849090e-2 8.462490801909093e-2 8.568935832373977e-2 8.676719776496295e-2
      8.785859475736626e-2 8.896371983394996e-2 9.008274567275581e-2 9.121584712384795e-2
      9.236320123663313e-2 9.352498728752607e-2 9.470138680796062e-2 9.589258361275535e-2
      9.709876382883474e-2 9.832011592431114e-2 9.955683073793475e-2 1.008091015089109e-1
      1.020771239070956e-1 1.033610960635684e-1 1.046612186015908e-1 1.059776946679548e-1
      1.073107299647237e-1 1.086605327813750e-1 1.100273140273452e-1 1.114112872649842e-1
      1.128126687429266e-1 1.142316774298791e-1 1.156685350488361e-1 1.171234661117242e-1
      1.185966979544816e-1 1.200884607725814e-1 1.215989876569986e-1 1.231285146306323e-1
      1.246772806851841e-1 1.262455278185007e-1 1.278335010723876e-1 1.294414485708962e-1
      1.310696215590946e-1 1.327182744423252e-1 1.343876648259544e-1 1.360780535556269e-1
      1.377897047580201e-1 1.395228858821171e-1 1.412778677409949e-1 1.430549245541390e-1
      1.448543339902925e-1 1.466763772108402e-1 1.485213389137424e-1 1.503895073780192e-1
      1.522811745087934e-1 1.541966358829033e-1 1.561361907950852e-1 1.581001423047403e-1
      1.600887972832880e-1 1.621024664621142e-1 1.641414644811254e-1 1.662061099379098e-1
      1.682967254375214e-1 1.704136376428846e-1 1.725571773258387e-1 1.747276794188206e-1
      1.769254830671976e-1 1.791509316822619e-1 1.814043729948866e-1 1.836861591098618e-1
      1.859966465609106e-1 1.883361963663974e-1 1.907051740857398e-1 1.931039498765253e-1
      1.955328985523521e-1 1.979923996413929e-1 2.004828374456959e-1 2.030046011012357e-1
      2.055580846387133e-1 2.081436870451268e-1 2.107618123261131e-1 2.134128695690733e-1
      2.160972730070958e-1 2.188154420836786e-1 2.215678015182705e-1 2.243547813726332e-1
      2.271768171180383e-1 2.300343497033134e-1 2.329278256237377e-1 2.358576969908110e-1
      2.388244216028959e-1 2.418284630167477e-1 2.448702906199502e-1 2.479503797042542e-1
      2.510692115398458e-1 2.542272734505453e-1 2.574250588899504e-1 2.606630675185429e-1
      2.639418052817578e-1 2.672617844890418e-1 2.706235238939009e-1 2.740275487749559e-1
      2.774743910180208e-1 2.809645891992078e-1 2.844986886690841e-1 2.880772416378825e-1
      2.917008072617841e-1 2.953699517302906e-1 2.990852483546894e-1 3.028472776576372e-1
      3.066566274638672e-1 3.105138929920356e-1 3.144196769477300e-1 3.183745896176387e-1
      3.223792489649133e-1 3.264342807257249e-1 3.305403185070350e-1 3.346980038856020e-1
      3.389079865082238e-1 3.431709241932512e-1 3.474874830333711e-1 3.518583374996832e-1
      3.562841705470915e-1 3.607656737210129e-1 3.653035472654368e-1 3.698985002323373e-1
      3.745512505924628e-1 3.792625253475244e-1 3.840330606437867e-1 3.888636018870958e-1
      3.937549038593496e-1 3.987077308364313e-1 4.037228567076340e-1 4.088010650965772e-1
      4.139431494836539e-1 4.191499133300121e-1 4.244221702030944e-1 4.297607439037654e-1
      4.351664685950256e-1 4.406401889323567e-1 4.461827601956989e-1 4.517950484230867e-1
      4.574779305459755e-1 4.632322945262574e-1 4.690590394950125e-1 4.749590758929975e-1
      4.809333256129017e-1 4.869827221434003e-1 4.931082107150069e-1 4.993107484477742e-1
      5.055913045008429e-1 5.119508602238724e-1 5.183904093103852e-1 5.249109579530251e-1
      5.315135250007847e-1 5.381991421181995e-1 5.449688539465438e-1 5.518237182670661e-1
      5.587648061662607e-1 5.657932022032346e-1 5.729100045791689e-1 5.801163253089122e-1
      5.874132903947419e-1 5.948020400022963e-1 6.022837286387352e-1 6.098595253331307e-1
      6.175306138191273e-1 6.252981927199102e-1 6.331634757354834e-1 6.411276918323213e-1
      6.491920854353936e-1 6.573579166226057e-1 6.656264613216962e-1 6.739990115095946e-1
      6.824768754143030e-1 6.910613777193061e-1 6.997538597705519e-1 7.085556797860484e-1
      7.174682130680780e-1 7.264928522180998e-1 7.356310073543433e-1 7.448841063321375e-1
      7.542535949670257e-1 7.637409372606672e-1 7.733476156295986e-1 7.830751311368615e-1
      7.929250037265419e-1 8.028987724612744e-1 8.129979957627127e-1 8.232242516550462e-1
      8.335791380115651e-1 8.440642728043269e-1 8.546812943569778e-1 8.654318616007330e-1
      8.763176543335982e-1 8.873403734828367e-1 8.985017413707384e-1 9.098035019837468e-1
      9.212474212449481e-1 9.328352872900114e-1 9.445689107465835e-1 9.564501250171986e-1
      9.684807865657621e-1 9.806627752076144e-1 9.929979944032667e-1 1.005488371555816e0
      1.018135858312102e0 1.030942430867664e0 1.043910090275516e0 1.057040862758825e0
      1.070336800027508e0 1.083799979598811e0 1.097432505121936e0 1.111236506706729e0
      1.125214141256523e0 1.139367592805156e0 1.153699072858223e0 1.168210820738647e0
      1.182905103936552e0 1.197784218463586e0 1.212850489211668e0 1.228106270316251e0
      1.243553945524174e0 1.259195928566114e0 1.275034663533746e0 1.291072625261636e0
      1.307312319713928e0 1.323756284375925e0 1.340407088650557e0 1.357267334259870e0
      1.374339655651545e0 1.391626720410529e0 1.409131229675867e0 1.426855918562738e0
      1.444803556589846e0 1.462976948112149e0 1.481378932759042e0 1.500012385878069e0
      1.518880218984187e0 1.537985380214707e0 1.557330854789943e0 1.576919665479652e0
      1.596754873075363e0 1.616839576868612e0 1.637176915135232e0 1.657770065625708e0
      1.678622246061694e0 1.699736714638814e0 1.721116770535734e0 1.742765754429690e0
      1.764687049018463e0 1.786884079548925e0 1.809360314352264e0 1.832119265385890e0
      1.855164488782207e0 1.878499585404262e0 1.902128201408370e0 1.926054028813861e0
      1.950280806079939e0 1.974812318689843e0 1.999652399742333e0 2.024804930550604e0
      2.050273841248775e0 2.076063111405952e0 2.102176770648068e0 2.128618899287514e0
      2.155393628960679e0 2.182505143273556e0 2.209957678455406e0 2.237755524020709e0
      2.265903023439392e0 2.294404574815500e0 2.323264631574429e0 2.352487703158756e0
      2.382078355732875e0 2.412041212896457e0 2.442380956406887e0 2.473102326910822e0
      2.504210124684898e0 2.535709210385811e0 2.567604505809792e0 2.599900994661633e0
      2.632603723333435e0 2.665717801693076e0 2.699248403882677e0 2.733200769127052e0
      2.767580202552339e0 2.802392076014966e0 2.837641828940976e0 2.873334969175986e0
      2.909477073845779e0 2.946073790227733e0 2.983130836633248e0 3.020654003301209e0
      3.058649153302755e0 3.097122223457379e0 3.136079225260557e0 3.175526245823091e0
      3.215469448822187e0 3.255915075464585e0 3.296869445461740e0 3.338338958017277e0
      3.380330092826912e0 3.422849411090882e0 3.465903556539175e0 3.509499256469619e0
      3.553643322799012e0 3.598342653127542e0 3.643604231816502e0 3.689435131079654e0
      3.735842512088257e0 3.782833626089998e0 3.830415815542057e0 3.878596515258330e0
      3.927383253571178e0 3.976783653507726e0 4.026805433980956e0 4.077456410995854e0
      4.128744498870612e0 4.180677711473313e0 4.233264163474095e0 4.286512071613055e0
      4.340429755984188e0 4.395025641335360e0 4.450308258384739e0 4.506286245153722e0
      4.562968348316611e0 4.620363424567365e0 4.678480442003402e0 4.737328481526944e0
      4.796916738263903e0 4.857254523000610e0 4.918351263638706e0 4.980216506668199e0
      5.042859918659189e0 5.106291287772256e0 5.170520525287860e0 5.235557667155054e0
      5.301412875559557e0 5.368096440511674e0 5.435618781454108e0 5.503990448889986e0
      5.573222126031469e0 5.643324630468944e0 5.714308915861362e0 5.786186073647745e0
      5.858967334780212e0 5.932664071478912e0 6.007287799008867e0 6.082850177479340e0
      6.159363013665709e0 6.236838262854276e0 6.315288030710368e0 6.394724575169803e0
      6.475160308354274e0 6.556607798510756e0 6.639079771975264e0 6.722589115161467e0
      6.807148876574118e0 6.892772268847985e0 6.979472670812325e0 7.067263629581315e0
      7.156158862670898e0 7.246172260142080e0 7.337317886771361e0 7.429609984248353e0
      7.523062973401028e0 7.617691456449101e0 7.713510219285546e0 7.810534233787012e0
      7.908778660153176e0 8.008258849275510e0 8.108990345135988e0 8.210988887235747e0
      8.314270413054523e0 8.418851060540868e0 8.524747170633693e0 8.631975289815680e0
      8.740552172698573e0 8.850494784641242e0 8.961820304400499e0 9.074546126815267e0
      9.188689865524674e0 9.304269355720088e0 9.421302656932017e0 9.539808055851896e0
      9.659804069189374e0 9.781309446565707e0 9.904343173443277e0 1.002892447409224e1
      1.015507281459430e1 1.028280790588428e1 1.041214970683011e1 1.054311842735129e1
      1.067573453157689e1 1.081001874104302e1 1.094599203793057e1 1.108367566834387e1
      1.122309114563023e1 1.136426025374165e1 1.150720505063851e1 1.165194787173610e1
      1.179851133339475e1 1.194691833645347e1 1.209719206980846e1 1.224935601403630e1
      1.240343394506283e1 1.255944993787828e1 1.271742837029889e1 1.287739392677618e1
      1.303937160225380e1 1.320338670607307e1 1.336946486592768e1 1.353763203186795e1
      1.370791448035573e1 1.388033881837006e1 1.405493198756451e1 1.423172126847701e1
      1.441073428479236e1 1.459199900765857e1 1.477554376005740e1 1.496139722122980e1
      1.514958843115723e1 1.534014679509909e1 1.553310208818745e1 1.572848446007946e1
      1.592632443966818e1 1.612665293985298e1 1.632950126236954e1 1.653490110268097e1
      1.674288455493024e1 1.695348411695486e1 1.716673269536491e1 1.738266361068456e1
      1.760131060255870e1 1.782270783502465e1 1.804688990185038e1 1.827389183193999e1
      1.850374909480683e1 1.873649760611590e1 1.897217373329566e1 1.921081430122040e1
      1.945245659796445e1 1.969713838062822e1 1.994489788123811e1 2.019577381272019e1
      2.044980537494909e1 2.070703226087331e1 2.096749466271704e1 2.123123327826053e1
      2.149828931719906e1 2.176870450758197e1 2.204252110233300e1 2.231978188585209e1
      2.260053018070079e1 2.288480985437141e1 2.317266532614123e1 2.346414157401346e1
      2.375928414174476e1 2.405813914596184e1 2.436075328336718e1 2.466717383803535e1
      2.497744868880151e1 2.529162631674227e1 2.560975581275123e1 2.593188688520942e1
      2.625806986775222e1 2.658835572713436e1 2.692279607119325e1 2.726144315691312e1
      2.760434989859014e1 2.795156987610024e1 2.830315734327146e1 2.865916723636073e1
      2.901965518263821e1 2.938467750907897e1 2.975429125116408e1 3.012855416179280e1
      3.050752472030626e1 3.089126214162532e1 3.127982638550282e1 3.167327816589230e1
      3.207167896043504e1 3.247509102006564e1 3.288357737873920e1 3.329720186328040e1
      3.371602910335638e1 3.414012454157560e1 3.456955444371300e1 3.500438590906454e1
      3.544468688093142e1 3.589052615723615e1 3.634197340127285e1 3.679909915259175e1
      3.726197483802160e1 3.773067278283004e1 3.820526622202437e1 3.868582931179518e1
      3.917243714110282e1 3.966516574341070e1 4.016409210856547e1 4.066929419482661e1
      4.118085094104807e1 4.169884227901210e1 4.222334914591919e1 4.275445349703446e1
      4.329223831849318e1 4.383678764026800e1 4.438818654929816e1 4.494652120278511e1
      4.551187884165448e1 4.608434780418743e1 4.666401753982419e1 4.725097862314015e1
      4.784532276799883e1 4.844714284188217e1 4.905653288040094e1 4.967358810198865e1
      5.029840492277891e1 5.093108097167125e1 5.157171510558560e1 5.222040742490858e1
      5.287725928913503e1 5.354237333270493e1 5.421585348104088e1 5.489780496678634e1