<?xml version="1.0" encoding="UTF-8"?>
<UPF version="2.0.1">
  <PP_INFO><![CDATA[
Generated using "atomic" code by A. Dal Corso  v.6.3MaX
Author: ADC
Generation date: 27May2022
Pseudopotential type: USPP
Element: Ir
Functional: PBE
    Suggested minimum cutoff for wavefunctions:  27. Ry
    Suggested minimum cutoff for charge density: 361. Ry
    The Pseudo was generated with a Scalar-Relativistic Calculation
    Local Potential by smoothing AE potential with Bessel fncs, cutoff radius:   2.5000
    Pseudopotential contains additional information for GIPAW reconstruction.
    Valence configuration:
    nl pn  l   occ       Rcut    Rcut US       E pseu
    6S  1  0  2.00      2.200      2.300    -0.465317
    6P  2  1  0.00      2.300      2.500    -0.089371
    5D  3  2  7.00      1.800      2.100    -0.525312
    Generation configuration:
    6S  1  0  2.00      2.200      2.300    -0.465315
    6S  1  0  0.00      2.200      2.300     0.400000
    6P  2  1  0.00      2.300      2.500    -0.089371
    6P  2  1  0.00      2.300      2.500     6.400000
    5D  3  2  7.00      1.800      2.100    -0.525312
    5D  3  2  0.00      1.800      2.100     4.300000
    Pseudization used: troullier-martins
]]>
    <PP_INPUTFILE><![CDATA[
 &input
   title='Ir',
   zed=77.,
   rel=1,
   config='[Xe] 4f14.0 5d7.0 6s2.0 6p0.0',
   iswitch=3,
   dft='PBE'
 /
 &inputp
   pseudotype=3,
   file_pseudopw='Ir.pbe-n-rrkjus_psl.0.2.3.UPF',
   author='ADC',
   lloc=-1,
   rcloc=2.5,
   which_augfun='PSQ',
   rmatch_augfun=1.0,
   nlcc=.true.,
   new_core_ps=.true.,
   rcore=1.6,
   tm=.true.
 /
6
6S  1  0  2.00  0.00  2.20  2.30  0.0
6S  1  0  0.00  0.40  2.20  2.30  0.0
6P  2  1  0.00  0.00  2.30  2.50  0.0
6P  2  1  0.00  6.40  2.30  2.50  0.0
5D  3  2  7.00  0.00  1.80  2.10  0.0
5D  3  2  0.00  4.30  1.80  2.10  0.0
]]></PP_INPUTFILE>
  </PP_INFO>
  <!--
 END OF HUMAN READABLE SECTION 
-->
  <PP_HEADER generated="Generated using &quot;atomic&quot; code by A. Dal Corso  v.6.3MaX" author="ADC" date="27May2022" comment="" element="Ir" pseudo_type="USPP" relativistic="scalar" is_ultrasoft="true" is_paw="false" is_coulomb="false" has_so="false" has_wfc="false" has_gipaw="true" paw_as_gipaw="false" core_correction="true" functional="PBE" z_valence="9.000000000000e0" total_psenergy="-6.136503717439e1" wfc_cutoff="2.700029338023e1" rho_cutoff="3.608248097181e2" l_max="2" l_max_rho="4" l_local="-1" mesh_size="1277" number_of_wfc="3" number_of_proj="6"/>
  <PP_MESH dx="1.250000000000e-2" mesh="1277" xmin="-7.000000000000e0" rmax="1.000000000000e2" zmesh="7.700000000000e1">
    <PP_R>
      1.184262292927943e-5 1.199158478790938e-5 1.214242035605951e-5 1.229515320209421e-5
      1.244980719083143e-5 1.260640648727154e-5 1.276497556037323e-5 1.292553918687677e-5
      1.308812245517546e-5 1.325275076923577e-5 1.341944985256671e-5 1.358824575223920e-5
      1.375916484295598e-5 1.393223383117268e-5 1.410747975927088e-5 1.428493000978335e-5
      1.446461230967277e-5 1.464655473466405e-5 1.483078571363127e-5 1.501733403303971e-5
      1.520622884144382e-5 1.539749965404172e-5 1.559117635728702e-5 1.578728921355863e-5
      1.598586886588936e-5 1.618694634275389e-5 1.639055306291707e-5 1.659672084034317e-5
      1.680548188916686e-5 1.701686882872675e-5 1.723091468866223e-5 1.744765291407437e-5
      1.766711737075187e-5 1.788934235046256e-5 1.811436257631167e-5 1.834221320816729e-5
      1.857292984815422e-5 1.880654854621683e-5 1.904310580575199e-5 1.928263858931281e-5
      1.952518432438406e-5 1.977078090923028e-5 2.001946671881753e-5 2.027128061080951e-5
      2.052626193163918e-5 2.078445052265668e-5 2.104588672635463e-5 2.131061139267177e-5
      2.157866588537577e-5 2.185009208852651e-5 2.212493241302044e-5 2.240322980321743e-5
      2.268502774365090e-5 2.297037026582235e-5 2.325930195508143e-5 2.355186795759240e-5
      2.384811398738841e-5 2.414808633351430e-5 2.445183186725944e-5 2.475939804948151e-5
      2.507083293802220e-5 2.538618519521645e-5 2.570550409549607e-5 2.602883953308882e-5
      2.635624202981472e-5 2.668776274297999e-5 2.702345347337051e-5 2.736336667334589e-5
      2.770755545503517e-5 2.805607359863577e-5 2.840897556081669e-5 2.876631648322749e-5
      2.912815220111433e-5 2.949453925204424e-5 2.986553488473943e-5 3.024119706802226e-5
      3.062158449987316e-5 3.100675661660225e-5 3.139677360213641e-5 3.179169639742316e-5
      3.219158670995270e-5 3.259650702339998e-5 3.300652060738777e-5 3.342169152737273e-5
      3.384208465465582e-5 3.426776567651846e-5 3.469880110648637e-5 3.513525829472242e-5
      3.557720543855025e-5 3.602471159311024e-5 3.647784668214951e-5 3.693668150894763e-5
      3.740128776737977e-5 3.787173805311906e-5 3.834810587497983e-5 3.883046566640338e-5
      3.931889279708851e-5 3.981346358476809e-5 4.031425530713388e-5 4.082134621391144e-5
      4.133481553908657e-5 4.185474351328605e-5 4.238121137631362e-5 4.291430138984392e-5
      4.345409685027627e-5 4.400068210174950e-5 4.455414254932123e-5 4.511456467231238e-5
      4.568203603781985e-5 4.625664531439908e-5 4.683848228591858e-5 4.742763786558887e-5
      4.802420411016795e-5 4.862827423434519e-5 4.923994262530659e-5 4.985930485748264e-5
      5.048645770748221e-5 5.112149916921407e-5 5.176452846919858e-5 5.241564608207218e-5
      5.307495374628656e-5 5.374255448000568e-5 5.441855259720233e-5 5.510305372395767e-5
      5.579616481496545e-5 5.649799417024376e-5 5.720865145205721e-5 5.792824770205197e-5
      5.865689535860606e-5 5.939470827439836e-5 6.014180173419801e-5 6.089829247287806e-5
      6.166429869365555e-5 6.243994008656085e-5 6.322533784713978e-5 6.402061469539028e-5
      6.482589489493789e-5 6.564130427245213e-5 6.646697023730717e-5 6.730302180148993e-5
      6.814958959975824e-5 6.900680591005294e-5 6.987480467416650e-5 7.075372151867176e-5
      7.164369377611392e-5 7.254486050646882e-5 7.345736251887153e-5 7.438134239361799e-5
      7.531694450444339e-5 7.626431504108120e-5 7.722360203210512e-5 7.819495536805920e-5
      7.917852682487841e-5 8.017447008760392e-5 8.118294077439691e-5 8.220409646085386e-5
      8.323809670462836e-5 8.428510307036216e-5 8.534527915493005e-5 8.641879061300227e-5
      8.750580518292814e-5 8.860649271294584e-5 8.972102518772120e-5 9.084957675522089e-5
      9.199232375392370e-5 9.314944474037272e-5 9.432112051707652e-5 9.550753416075890e-5
      9.670887105096543e-5 9.792531889902957e-5 9.915706777740208e-5 1.004043101493516e-4
      1.016672408990360e-4 1.029460573619545e-4 1.042409593557813e-4 1.055521492115872e-4
      1.068798318054549e-4 1.082242145904910e-4 1.095855076292407e-4 1.109639236265110e-4
      1.123596779626056e-4 1.137729887269796e-4 1.152040767523150e-4 1.166531656490275e-4
      1.181204818402055e-4 1.196062545969888e-4 1.211107160743939e-4 1.226341013475872e-4
      1.241766484486170e-4 1.257385984036064e-4 1.273201952704134e-4 1.289216861767664e-4
      1.305433213588778e-4 1.321853542005438e-4 1.338480412727370e-4 1.355316423736949e-4
      1.372364205695150e-4 1.389626422352588e-4 1.407105770965734e-4 1.424804982718375e-4
      1.442726823148351e-4 1.460874092579697e-4 1.479249626560179e-4 1.497856296304367e-4
      1.516697009142267e-4 1.535774708973586e-4 1.555092376727743e-4 1.574653030829623e-4
      1.594459727671226e-4 1.614515562089233e-4 1.634823667848571e-4 1.655387218132087e-4
      1.676209426036347e-4 1.697293545073698e-4 1.718642869680642e-4 1.740260735732575e-4
      1.762150521065056e-4 1.784315646001577e-4 1.806759573888003e-4 1.829485811633731e-4
      1.852497910259643e-4 1.875799465452971e-4 1.899394118129120e-4 1.923285555000571e-4
      1.947477509152950e-4 1.971973760628305e-4 1.996778137015771e-4 2.021894514049622e-4
      2.047326816214868e-4 2.073079017360471e-4 2.099155141320244e-4 2.125559262541614e-4
      2.152295506722241e-4 2.179368051454670e-4 2.206781126879101e-4 2.234539016344335e-4
      2.262646057077080e-4 2.291106640859632e-4 2.319925214716108e-4 2.349106281607313e-4
      2.378654401134309e-4 2.408574190250894e-4 2.438870323984988e-4 2.469547536169125e-4
      2.500610620180121e-4 2.532064429688051e-4 2.563913879414646e-4 2.596163945901225e-4
      2.628819668286285e-4 2.661886149092890e-4 2.695368555025941e-4 2.729272117779485e-4
      2.763602134854178e-4 2.798363970385035e-4 2.833563055979581e-4 2.869204891566551e-4
      2.905295046255273e-4 2.941839159205841e-4 2.978842940510251e-4 3.016312172084620e-4
      3.054252708572611e-4 3.092670478260244e-4 3.131571484002191e-4 3.170961804159745e-4
      3.210847593550572e-4 3.251235084410409e-4 3.292130587366875e-4 3.333540492425511e-4
      3.375471269968227e-4 3.417929471764326e-4 3.460921731994219e-4 3.504454768286037e-4
      3.548535382765269e-4 3.593170463117607e-4 3.638366983665171e-4 3.684132006456247e-4
      3.730472682368757e-4 3.777396252227594e-4 3.824910047936012e-4 3.873021493621260e-4
      3.921738106794610e-4 3.971067499525986e-4 4.021017379633363e-4 4.071595551887129e-4
      4.122809919229605e-4 4.174668484009879e-4 4.227179349234212e-4 4.280350719832126e-4
      4.334190903938452e-4 4.388708314191501e-4 4.443911469047536e-4 4.499808994111821e-4
      4.556409623486369e-4 4.613722201134671e-4 4.671755682263593e-4 4.730519134722628e-4
      4.790021740420781e-4 4.850272796761249e-4 4.911281718094168e-4 4.973058037187617e-4
      5.035611406717145e-4 5.098951600774003e-4 5.163088516392379e-4 5.228032175095825e-4
      5.293792724463147e-4 5.360380439713968e-4 5.427805725314274e-4 5.496079116602118e-4
      5.565211281433791e-4 5.635213021850698e-4 5.706095275767198e-4 5.777869118679678e-4
      5.850545765397120e-4 5.924136571793429e-4 5.998653036581834e-4 6.074106803111555e-4
      6.150509661187133e-4 6.227873548910581e-4 6.306210554546750e-4 6.385532918412153e-4
      6.465853034787525e-4 6.547183453854465e-4 6.629536883656418e-4 6.712926192084340e-4
      6.797364408887320e-4 6.882864727708546e-4 6.969440508146770e-4 7.057105277843831e-4
      7.145872734598346e-4 7.235756748506025e-4 7.326771364126929e-4 7.418930802679907e-4
      7.512249464264737e-4 7.606741930112149e-4 7.702422964862171e-4 7.799307518871162e-4
      7.897410730547789e-4 7.996747928718473e-4 8.097334635022527e-4 8.199186566337453e-4
      8.302319637234747e-4 8.406749962466566e-4 8.512493859483683e-4 8.619567850985149e-4
      8.727988667499966e-4 8.837773250001325e-4 8.948938752553580e-4 9.061502544992683e-4
      9.175482215640212e-4 9.290895574051586e-4 9.407760653798892e-4 9.526095715288589e-4
      9.645919248614792e-4 9.767249976448367e-4 9.890106856962380e-4 1.001450908679438e-3
      1.014047610404587e-3 1.026802759131957e-3 1.039718347879488e-3 1.052796394734198e-3
      1.066038943167517e-3 1.079448062354579e-3 1.093025847497538e-3 1.106774420152947e-3
      1.120695928563253e-3 1.134792547992473e-3 1.149066481066069e-3 1.163519958115126e-3
      1.178155237524838e-3 1.192974606087388e-3 1.207980379359266e-3 1.223174902023074e-3
      1.238560548253892e-3 1.254139722090245e-3 1.269914857809741e-3 1.285888420309432e-3
      1.302062905490958e-3 1.318440840650533e-3 1.335024784873850e-3 1.351817329435931e-3
      1.368821098206030e-3 1.386038748057613e-3 1.403472969283498e-3 1.421126486016220e-3
      1.439002056653688e-3 1.457102474290178e-3 1.475430567152776e-3 1.493989199043278e-3
      1.512781269785676e-3 1.531809715679254e-3 1.551077509957397e-3 1.570587663252165e-3
      1.590343224064700e-3 1.610347279241575e-3 1.630602954457108e-3 1.651113414701761e-3
      1.671881864776678e-3 1.692911549794438e-3 1.714205755686108e-3 1.735767809714682e-3
      1.757601080994970e-3 1.779708981020032e-3 1.802094964194225e-3 1.824762528372963e-3
      1.847715215409269e-3 1.870956611707185e-3 1.894490348782174e-3 1.918320103828530e-3
      1.942449600293962e-3 1.966882608461385e-3 1.991622946038032e-3 2.016674478751987e-3
      2.042041120956203e-3 2.067726836240134e-3 2.093735638049051e-3 2.120071590311148e-3
      2.146738808072553e-3 2.173741458140293e-3 2.201083759733379e-3 2.228769985142063e-3
      2.256804460395391e-3 2.285191565937162e-3 2.313935737310370e-3 2.343041465850271e-3
      2.372513299386166e-3 2.402355842952003e-3 2.432573759505936e-3 2.463171770658900e-3
      2.494154657412393e-3 2.525527260905502e-3 2.557294483171351e-3 2.589461287903054e-3
      2.622032701229292e-3 2.655013812499663e-3 2.688409775079906e-3 2.722225807157114e-3
      2.756467192555105e-3 2.791139281560009e-3 2.826247491756273e-3 2.861797308873169e-3
      2.897794287641946e-3 2.934244052663778e-3 2.971152299288604e-3 3.008524794505051e-3
      3.046367377841530e-3 3.084685962278677e-3 3.123486535173275e-3 3.162775159193776e-3
      3.202557973267618e-3 3.242841193540438e-3 3.283631114347357e-3 3.324934109196494e-3
      3.366756631764826e-3 3.409105216906589e-3 3.451986481674373e-3 3.495407126353038e-3
      3.539373935506657e-3 3.583893779038613e-3 3.628973613265032e-3 3.674620482001728e-3
      3.720841517664807e-3 3.767643942385135e-3 3.815035069136791e-3 3.863022302879750e-3
      3.911613141716913e-3 3.960815178065705e-3 4.010636099844414e-3 4.061083691673427e-3
      4.112165836091602e-3 4.163890514787933e-3 4.216265809848698e-3 4.269299905020313e-3
      4.323001086988048e-3 4.377377746670837e-3 4.432438380532389e-3 4.488191591908760e-3
      4.544646092352668e-3 4.601810702994660e-3 4.659694355921451e-3 4.718306095571577e-3
      4.777655080148602e-3 4.837750583052117e-3 4.898601994326715e-3 4.960218822129209e-3
      5.022610694214304e-3 5.085787359438948e-3 5.149758689285623e-3 5.214534679404763e-3
      5.280125451176614e-3 5.346541253292711e-3 5.413792463357252e-3 5.481889589508643e-3
      5.550843272061387e-3 5.620664285168670e-3 5.691363538505838e-3 5.762952078975063e-3
      5.835441092431449e-3 5.908841905430827e-3 5.983165986999560e-3 6.058424950426606e-3
      6.134630555078113e-3 6.211794708234859e-3 6.289929466952762e-3 6.369047039946835e-3
      6.449159789498829e-3 6.530280233388844e-3 6.612421046851290e-3 6.695595064555381e-3
      6.779815282610602e-3 6.865094860597372e-3 6.951447123623250e-3 7.038885564405028e-3
      7.127423845376969e-3 7.217075800825606e-3 7.307855439051379e-3 7.399776944557441e-3
      7.492854680266062e-3 7.587103189762806e-3 7.682537199569033e-3 7.779171621442932e-3
      7.877021554709525e-3 7.976102288619973e-3 8.076429304740524e-3 8.178018279371562e-3
      8.280885085997060e-3 8.385045797764834e-3 8.490516689998019e-3 8.597314242738108e-3
      8.705455143319995e-3 8.814956288979413e-3 8.925834789493146e-3 9.038107969852495e-3
      9.151793372970307e-3 9.266908762422116e-3 9.383472125221724e-3 9.501501674631710e-3
      9.621015853009325e-3 9.742033334688077e-3 9.864573028895700e-3 9.988654082708715e-3
      1.011429588404422e-2 1.024151806468931e-2 1.037034050336854e-2 1.050078332885004e-2
      1.063286692309068e-2 1.076661192442078e-2 1.090203923076893e-2 1.103917000292725e-2
      1.117802566785790e-2 1.131862792204102e-2 1.146099873486488e-2 1.160516035205865e-2
      1.175113529916831e-2 1.189894638507634e-2 1.204861670556563e-2 1.220016964692826e-2
      1.235362888961966e-2 1.250901841195873e-2 1.266636249387446e-2 1.282568572069977e-2
      1.298701298701299e-2 1.315036950052772e-2 1.331578078603155e-2 1.348327268937436e-2
      1.365287138150681e-2 1.382460336256960e-2 1.399849546603418e-2 1.417457486289548e-2
      1.435286906591751e-2 1.453340593393222e-2 1.471621367619255e-2 1.490132085678016e-2
      1.508875639906862e-2 1.527854959024274e-2 1.547073008587479e-2 1.566532791455819e-2
      1.586237348259961e-2 1.606189757876994e-2 1.626393137911513e-2 1.646850645182754e-2
      1.667565476217846e-2 1.688540867751287e-2 1.709780097230678e-2 1.731286483328836e-2
      1.753063386462343e-2 1.775114209316619e-2 1.797442397377600e-2 1.820051439470096e-2
      1.842944868302933e-2 1.866126261020942e-2 1.889599239763898e-2 1.913367472232488e-2
      1.937434672261391e-2 1.961804600399576e-2 1.986481064497896e-2 2.011467920304069e-2
      2.036769072065155e-2 2.062388473137590e-2 2.088330126604914e-2 2.114598085903261e-2
      2.141196455454712e-2 2.168129391308628e-2 2.195401101791028e-2 2.223015848162163e-2
      2.250977945282333e-2 2.279291762286102e-2 2.307961723264985e-2 2.336992307958713e-2
      2.366388052455208e-2 2.396153549899352e-2 2.426293451210678e-2 2.456812465810091e-2
      2.487715362355710e-2 2.519006969487994e-2 2.550692176584219e-2 2.582775934522457e-2
      2.615263256455165e-2 2.648159218592488e-2 2.681468960995439e-2 2.715197688379035e-2
      2.749350670925552e-2 2.783933245107999e-2 2.818950814523952e-2 2.854408850739874e-2
      2.890312894146064e-2 2.926668554822349e-2 2.963481513414681e-2 3.000757522022734e-2
      3.038502405098691e-2 3.076722060357327e-2 3.115422459697530e-2 3.154609650135440e-2
      3.194289754749287e-2 3.234468973636146e-2 3.275153584880714e-2 3.316349945536268e-2
      3.358064492617983e-2 3.400303744108704e-2 3.443074299977412e-2 3.486382843210483e-2
      3.530236140855902e-2 3.574641045080659e-2 3.619604494241366e-2 3.665133513968441e-2
      3.711235218263852e-2 3.757916810612677e-2 3.805185585108708e-2 3.853048927594116e-2
      3.901514316813548e-2 3.950589325582682e-2 4.000281621971469e-2 4.050598970502332e-2
      4.101549233363336e-2 4.153140371636720e-2 4.205380446542809e-2 4.258277620699575e-2
      4.311840159398118e-2 4.366076431894066e-2 4.420994912715348e-2 4.476604182986334e-2
      4.532912931768625e-2 4.589929957418796e-2 4.647664168963091e-2 4.706124587489534e-2
      4.765320347557464e-2 4.825260698624811e-2 4.885955006493395e-2 4.947412754772289e-2
      5.009643546359706e-2 5.072657104943447e-2 5.136463276520230e-2 5.201072030934194e-2
      5.266493463434645e-2 5.332737796253521e-2 5.399815380202612e-2 5.467736696290856e-2
      5.536512357362106e-2 5.606153109753304e-2 5.676669834973710e-2 5.748073551405114e-2
      5.820375416023461e-2 5.893586726142218e-2 5.967718921177520e-2 6.042783584435673e-2
      6.118792444923045e-2 6.195757379178705e-2 6.273690413130239e-2 6.352603723972736e-2
      6.432509642071576e-2 6.513420652889044e-2 6.595349398935171e-2 6.678308681743237e-2
      6.762311463869936e-2 6.847370870920897e-2 6.933500193601533e-2 7.020712889793723e-2
      7.109022586658709e-2 7.198443082766265e-2 7.288988350250849e-2 7.380672536994738e-2
      7.473509968838611e-2 7.567515151820103e-2 7.662702774440283e-2 7.759087709958859e-2
      7.856685018718117e-2 7.955509950496086e-2 8.055577946889443e-2 8.156904643726190e-2
      8.259505873508870e-2 8.363397667888394e-2 8.468596260168976e-2 8.575118087844720e-2
      8.682979795167887e-2 8.792198235749705e-2 8.902790475193743e-2 9.014773793762386e-2
      9.128165689077015e-2 9.242983878851945e-2 9.359246303662943e-2 9.476971129750439e-2
      9.596176751857987e-2 9.716881796106605e-2 9.839105122904998e-2 9.962865829896661e-2
      1.008818325494387e-1 1.021507697914921e-1 1.034356682991530e-1 1.047367288404270e-1
      1.060541547086707e-1 1.073881517543568e-1 1.087389284172372e-1 1.101066957589141e-1
      1.114916674958168e-1 1.128940600325974e-1 1.143140924959430e-1 1.157519867688148e-1
      1.172079675251186e-1 1.186822622648094e-1 1.201751013494401e-1 1.216867180381550e-1
      1.232173485241367e-1 1.247672319715131e-1 1.263366105527258e-1 1.279257294863712e-1
      1.295348370755159e-1 1.311641847464942e-1 1.328140270881949e-1 1.344846218918402e-1
      1.361762301912671e-1 1.378891163037144e-1 1.396235478711215e-1 1.413797959019500e-1
      1.431581348135273e-1 1.449588424749268e-1 1.467822002503843e-1 1.486284930432613e-1
      1.504980093405637e-1 1.523910412580157e-1 1.543078845857064e-1 1.562488388343057e-1
      1.582142072818633e-1 1.602042970211983e-1 1.622194190078807e-1 1.642598881088211e-1
      1.663260231514681e-1 1.684181469736251e-1 1.705365864738965e-1 1.726816726627635e-1
      1.748537407143079e-1 1.770531300185814e-1 1.792801842346376e-1 1.815352513442292e-1
      1.838186837061793e-1 1.861308381114409e-1 1.884720758388432e-1 1.908427627115447e-1
      1.932432691541928e-1 1.956739702508025e-1 1.981352458033660e-1 2.006274803911952e-1
      2.031510634310152e-1 2.057063892378108e-1 2.082938570864374e-1 2.109138712740112e-1
      2.135668411830787e-1 2.162531813455863e-1 2.189733115076500e-1 2.217276566951410e-1
      2.245166472800995e-1 2.273407190479778e-1 2.302003132657356e-1 2.330958767507878e-1
      2.360278619408191e-1 2.389967269644814e-1 2.420029357129742e-1 2.450469579125309e-1
      2.481292691978139e-1 2.512503511862314e-1 2.544106915531951e-1 2.576107841083160e-1
      2.608511288725671e-1 2.641322321564108e-1 2.674546066389096e-1 2.708187714478369e-1
      2.742252522407874e-1 2.776745812873162e-1 2.811672975521049e-1 2.847039467791749e-1
      2.882850815771645e-1 2.919112615056705e-1 2.955830531626848e-1 2.993010302731247e-1
      3.030657737784769e-1 3.068778719275747e-1 3.107379203685085e-1 3.146465222417010e-1
      3.186042882741477e-1 3.226118368748422e-1 3.266697942314077e-1 3.307787944079363e-1
      3.349394794440657e-1 3.391524994552986e-1 3.434185127345819e-1 3.477381858551709e-1
      3.521121937747780e-1 3.565412199410403e-1 3.610259563983077e-1 3.655671038957747e-1
      3.701653719969781e-1 3.748214791906628e-1 3.795361530030512e-1 3.843101301115192e-1
      3.891441564597016e-1 3.940389873740514e-1 3.989953876818563e-1 4.040141318307489e-1
      4.090960040097139e-1 4.142417982716169e-1 4.194523186572821e-1 4.247283793211191e-1
      4.300708046583416e-1 4.354804294337788e-1 4.409580989123059e-1 4.465046689909251e-1
      4.521210063324942e-1 4.578079885011499e-1 4.635665040994274e-1 4.693974529071030e-1
      4.753017460217927e-1 4.812803060013064e-1 4.873340670078052e-1 4.934639749537636e-1
      4.996709876497681e-1 5.059560749541820e-1 5.123202189246825e-1 5.187644139717134e-1
      5.252896670138628e-1 5.318969976351923e-1 5.385874382445560e-1 5.453620342369092e-1
      5.522218441566595e-1 5.591679398630644e-1 5.662014066977079e-1 5.733233436540947e-1
      5.805348635493618e-1 5.878370931981658e-1 5.952311735887470e-1 6.027182600612075e-1
      6.102995224880435e-1 6.179761454569313e-1 6.257493284558287e-1 6.336202860603955e-1
      6.415902481237686e-1 6.496604599687378e-1 6.578321825823203e-1 6.661066928128013e-1
      6.744852835692400e-1 6.829692640234864e-1 6.915599598147493e-1 7.002587132567216e-1
      7.090668835473277e-1 7.179858469810973e-1 7.270169971642098e-1 7.361617452322581e-1
      7.454215200707304e-1 7.547977685382855e-1 7.642919556928241e-1 7.739055650204024e-1
      7.836400986670396e-1 7.934970776734205e-1 8.034780422125699e-1 8.135845518305054e-1
      8.238181856899136e-1 8.341805428169085e-1 8.446732423508703e-1 8.552979237974506e-1
      8.660562472847429e-1 8.769498938226773e-1 8.879805655656911e-1 8.991499860786837e-1
      9.104599006063358e-1 9.219120763458044e-1 9.335083027228452e-1 9.452503916714253e-1
      9.571401779168291e-1 9.691795192623495e-1 9.813702968795674e-1 9.937144156022843e-1
      1.006213804224168e0 1.018870415800119e0 1.031686227951446e0 1.044663243174874e0
      1.057803489155430e0 1.071109019083287e0 1.084581911974562e0 1.098224272996182e0
      1.112038233794814e0 1.126025952829934e0 1.140189615711103e0 1.154531435539459e0
      1.169053653253530e0 1.183758537979382e0 1.198648387385167e0 1.213725528040153e0
      1.228992315778236e0 1.244451136066063e0 1.260104404375759e0 1.275954566562338e0
      1.292004099245895e0 1.308255510198560e0 1.324711338736360e0 1.341374156115985e0
      1.358246565936548e0 1.375331204546416e0 1.392630741455124e0 1.410147879750514e0
      1.427885356521086e0 1.445845943283667e0 1.464032446416485e0 1.482447707597650e0
      1.501094604249190e0 1.519976049986648e0 1.539094995074329e0 1.558454426886306e0
      1.578057370373181e0 1.597906888534760e0 1.618006082898642e0 1.638358094004833e0
      1.658966101896481e0 1.679833326616740e0 1.700963028711930e0 1.722358509740996e0
      1.744023112791370e0 1.765960223001365e0 1.788173268089074e0 1.810665718887989e0
      1.833441089889312e0 1.856502939791091e0 1.879854872054301e0 1.903500535465859e0
      1.927443624708787e0 1.951687880939493e0 1.976237092372333e0 2.001095094871544e0
      2.026265772550586e0 2.051753058379058e0 2.077560934797229e0 2.103693434338290e0
      2.130154640258467e0 2.156948687175015e0 2.184079761712279e0 2.211552103155859e0
      2.239370004114992e0 2.267537811193304e0 2.296059925667954e0 2.324940804177359e0
      2.354184959417550e0 2.383796960847273e0 2.413781435402004e0 2.444143068216889e0
      2.474886603358831e0 2.506016844567748e0 2.537538656007155e0 2.569456963024230e0
      2.601776752919374e0 2.634503075725518e0 2.667641044997187e0 2.701195838609489e0
      2.735172699567205e0 2.769576936823975e0 2.804413926111872e0 2.839689110781353e0
      2.875408002651781e0 2.911576182872692e0 2.948199302795819e0 2.985283084858167e0
      3.022833323476134e0 3.060855885950891e0 3.099356713385193e0 3.138341821611646e0
      3.177817302132732e0 3.217789323072602e0 3.258264130140839e0 3.299248047608406e0
      3.340747479295779e0 3.382768909573595e0 3.425318904375835e0 3.468404112225742e0
      3.512031265274714e0 3.556207180354163e0 3.600938760040701e0 3.646232993734669e0
      3.692096958752220e0 3.738537821431212e0 3.785562838250911e0 3.833179356965874e0
      3.881394817754034e0 3.930216754379219e0 3.979652795368371e0 4.029710665203460e0
      4.080398185528496e0 4.131723276371663e0 4.183693957382812e0 4.236318349086601e0
      4.289604674151285e0 4.343561258673572e0 4.398196533479578e0 4.453519035442135e0
      4.509537408814741e0 4.566260406582193e0 4.623696891828300e0 4.681855839120749e0
      4.740746335913363e0 4.800377583966094e0 4.860758900782756e0 4.921899721066955e0
      4.983809598196263e0 5.046498205714919e0 5.109975338845408e0 5.174250916018909e0
      5.239334980425132e0 5.305237701581565e0 5.371969376922451e0 5.439540433407848e0
      5.507961429152787e0 5.577243055077064e0 5.647396136575697e0 5.718431635210376e0
      5.790360650422306e0 5.863194421266435e0 5.936944328167649e0 6.011621894698956e0
      6.087238789382039e0 6.163806827510557e0 6.241337972996226e0 6.319844340238276e0
      6.399338196016322e0 6.479831961407039e0 6.561338213725058e0 6.643869688488107e0
      6.727439281407039e0 6.812060050400785e0 6.897745217636638e0 6.984508171596330e0
      7.072362469167914e0 7.161321837764140e0 7.251400177467350e0 7.342611563201366e0
      7.434970246930804e0 7.528490659887876e0 7.623187414827387e0 7.719075308309977e0
      7.816169323014055e0 7.914484630076989e0 8.014036591465501e0 8.114840762376115e0
      8.216912893665638e0 8.320268934312219e0 8.424925033907519e0 8.530897545179997e0
      8.638203026550153e0 8.746858244717785e0 8.856880177281759e0 8.968286015392913e0
      9.081093166440075e0 9.195319256770121e0 9.310982134442076e0 9.428099872015862e0
      9.546690769376285e0 9.666773356592300e0 9.788366396812485e0 9.911488889196775e0
      1.003616007188507e1 1.016239942500333e1 1.029022667370730e1 1.041966179126466e1
      1.055072500217590e1 1.068343678533432e1 1.081781787722609e1 1.095388927517017e1
      1.109167224059937e1 1.123118830238236e1 1.137245926018761e1 1.151550718788973e1
      1.166035443701842e1 1.180702364025107e1 1.195553771494910e1 1.210591986673881e1
      1.225819359313740e1 1.241238268722439e1 1.256851124135944e1 1.272660365094681e1
      1.288668461824710e1 1.304877915623717e1 1.321291259251833e1 1.337911057327395e1
      1.354739906727668e1 1.371780436994604e1 1.389035310745733e1 1.406507224090177e1
      1.424198907049946e1 1.442113123986500e1 1.460252674032676e1 1.478620391530080e1
      1.497219146471933e1 1.516051844951539e1 1.535121429616353e1 1.554430880127771e1
      1.573983213626725e1 1.593781485205100e1 1.613828788383112e1 1.634128255592671e1
      1.654683058666824e1 1.675496409335375e1 1.696571559726705e1 1.717911802875945e1
      1.739520473239506e1 1.761400947216089e1 1.783556643674276e1 1.805991024486708e1
      1.828707595071033e1 1.851709904937626e1 1.875001548244195e1 1.898586164357402e1
      1.922467438421489e1 1.946649101934120e1 1.971134933329419e1 1.995928758568354e1
      2.021034451736566e1 2.046455935649686e1 2.072197182466298e1 2.098262214308591e1
      2.124655103890814e1 2.151379975155669e1 2.178441003918654e1 2.205842418520574e1
      2.233588500488213e1 2.261683585203321e1 2.290132062580052e1 2.318938377750866e1
      2.348107031761121e1 2.377642582272354e1 2.407549644274414e1 2.437832890806594e1
      2.468497053687767e1 2.499546924255776e1 2.530987354116071e1 2.562823255899777e1
      2.595059604031326e1 2.627701435505690e1 2.660753850675452e1 2.694222014047732e1
      2.728111155091140e1 2.762426569052920e1 2.797173617786312e1 2.832357730588376e1
      2.867984405048326e1 2.904059207906519e1 2.940587775924308e1 2.977575816764752e1
      3.015029109884490e1 3.052953507436777e1 3.091354935185878e1 3.130239393433018e1
      3.169612957953897e1 3.209481780948085e1 3.249852092000292e1 3.290730199053746e1
      3.332122489395849e1 3.374035430656170e1 3.416475571817060e1 3.459449544236925e1
      3.502964062686377e1 3.547025926397465e1 3.591642020126027e1 3.636819315227485e1
      3.682564870746122e1 3.728885834518041e1 3.775789444288089e1 3.823283028840702e1
      3.871374009145102e1 3.920069899514809e1 3.969378308781753e1 4.019306941485214e1
      4.069863599075617e1 4.121056181133580e1 4.172892686604205e1 4.225381215046919e1
      4.278529967901099e1 4.332347249767492e1 4.386841469705890e1 4.442021142549035e1
      4.497894890233058e1 4.554471443144727e1 4.611759641485523e1 4.669768436652999e1
      4.728506892639427e1 4.787984187448044e1 4.848209614527189e1 4.909192584222353e1
      4.970942625246632e1 5.033469386169576e1 5.096782636924773e1 5.160892270336483e1
      5.225808303665342e1 5.291540880173637e1 5.358100270710192e1 5.425496875315176e1
      5.493741224845198e1 5.562843982618694e1 5.632815946082170e1 5.703668048497282e1