<?xml version="1.0" encoding="UTF-8"?>
<UPF version="2.0.1">
  <PP_INFO><![CDATA[
Generated using "atomic" code by A. Dal Corso  v.6.3MaX
Author: ADC
Generation date: 27May2022
Pseudopotential type: USPP
Element: Pb
Functional: PBE
    Suggested minimum cutoff for wavefunctions:  40. Ry
    Suggested minimum cutoff for charge density: 158. Ry
    The Pseudo was generated with a Scalar-Relativistic Calculation
    Local Potential by smoothing AE potential with Bessel fncs, cutoff radius:   2.2000
    Pseudopotential contains additional information for GIPAW reconstruction.
    Valence configuration:
    nl pn  l   occ       Rcut    Rcut US       E pseu
    6S  1  0  2.00      2.000      2.200    -0.884915
    6P  2  1  2.00      2.400      2.600    -0.257056
    5D  3  2 10.00      1.600      2.100    -1.556486
    Generation configuration:
    6S  1  0  2.00      2.000      2.200    -0.884912
    6S  1  0  0.00      2.000      2.200     5.000000
    6P  2  1  2.00      2.400      2.600    -0.257055
    6P  2  1  0.00      2.400      2.600     6.500000
    5D  3  2 10.00      1.600      2.100    -1.556486
    5D  3  2  0.00      1.600      2.100    -0.900000
    Pseudization used: troullier-martins
]]>
    <PP_INPUTFILE><![CDATA[
 &input
   title='Pb',
   zed=82.0,
   rel=1,
   config='[Xe] 4f14 5d10 6s2 6p2',
   iswitch=3,
   dft='PBE'
 /
 &inputp
   pseudotype=3,
   file_pseudopw='Pb.pbe-dn-rrkjus_psl.0.2.2.UPF',
   author='ADC',
   lloc=-1,
   rcloc=2.2,
   which_augfun='PSQ',
   rmatch_augfun=1.75,
   nlcc=.true.,
   new_core_ps=.true.,
   rcore=1.4,
   tm=.true.
 /
6
6S  1  0  2.00  0.00  2.00  2.20  0.0
6S  1  0  0.00  5.00  2.00  2.20  0.0
6P  2  1  2.00  0.00  2.40  2.60  0.0
6P  2  1  0.00  6.50  2.40  2.60  0.0
5D  3  2 10.00  0.00  1.60  2.10  0.0
5D  3  2  0.00 -0.90  1.60  2.10  0.0
]]></PP_INPUTFILE>
  </PP_INFO>
  <!--
 END OF HUMAN READABLE SECTION 
-->
  <PP_HEADER generated="Generated using &quot;atomic&quot; code by A. Dal Corso  v.6.3MaX" author="ADC" date="27May2022" comment="" element="Pb" pseudo_type="USPP" relativistic="scalar" is_ultrasoft="true" is_paw="false" is_coulomb="false" has_so="false" has_wfc="false" has_gipaw="true" paw_as_gipaw="false" core_correction="true" functional="PBE" z_valence="1.400000000000e1" total_psenergy="-1.465932103712e2" wfc_cutoff="3.959977157858e1" rho_cutoff="1.583990863143e2" l_max="2" l_max_rho="4" l_local="-1" mesh_size="1281" number_of_wfc="3" number_of_proj="6"/>
  <PP_MESH dx="1.250000000000e-2" mesh="1281" xmin="-7.000000000000e0" rmax="1.000000000000e2" zmesh="8.200000000000e1">
    <PP_R>
      1.112051177505508e-5 1.126039059352466e-5 1.140202887093393e-5 1.154544873855188e-5
      1.169067260602463e-5 1.183772316487694e-5 1.198662339205779e-5 1.213739655353063e-5
      1.229006620790866e-5 1.244465621013603e-5 1.260119071521508e-5 1.275969418198071e-5
      1.292019137692208e-5 1.308270737805240e-5 1.324726757882754e-5 1.341389769211363e-5
      1.358262375420492e-5 1.375347212889186e-5 1.392646951158058e-5 1.410164293346412e-5
      1.427901976574603e-5 1.445862772391723e-5 1.464049487208660e-5 1.482464962736603e-5
      1.501112076431074e-5 1.519993741941524e-5 1.539112909566603e-5 1.558472566715152e-5
      1.578075738372986e-5 1.597925487575561e-5 1.618024915886575e-5 1.638377163882594e-5
      1.658985411643773e-5 1.679852879250753e-5 1.700982827287803e-5 1.722378557352295e-5
      1.744043412570578e-5 1.765980778120360e-5 1.788194081759638e-5 1.810686794362301e-5
      1.833462430460454e-5 1.856524548793575e-5 1.879876752864573e-5 1.903522691502844e-5
      1.927466059434411e-5 1.951710597859225e-5 1.976260095035740e-5 2.001118386872837e-5
      2.026289357529187e-5 2.051776940020172e-5 2.077585116832407e-5 2.103717920546027e-5
      2.130179434464780e-5 2.156973793254049e-5 2.184105183586915e-5 2.211577844798311e-5
      2.239396069547448e-5 2.267564204488537e-5 2.296086650949972e-5 2.324967865622044e-5
      2.354212361253304e-5 2.383824707355692e-5 2.413809530918533e-5 2.444171517131512e-5
      2.474915410116749e-5 2.506046013670072e-5 2.537568192011621e-5 2.569486870545895e-5
      2.601807036631352e-5 2.634533740359701e-5 2.667672095344982e-5 2.701227279522582e-5
      2.735204535958297e-5 2.769609173667569e-5 2.804446568445043e-5 2.839722163704529e-5
      2.875441471329552e-5 2.911610072534602e-5 2.948233618737199e-5 2.985317832440955e-5
      3.022868508129706e-5 3.060891513172925e-5 3.099392788742510e-5 3.138378350741097e-5
      3.177854290742071e-5 3.217826776941368e-5 3.258302055121281e-5 3.299286449626373e-5
      3.340786364351669e-5 3.382808283743279e-5 3.425358773811601e-5 3.468444483157278e-5
      3.512072144010053e-5 3.556248573280692e-5 3.600980673626154e-5 3.646275434528122e-5
      3.692139933385141e-5 3.738581336618468e-5 3.785606900791839e-5 3.833223973745342e-5
      3.881439995743496e-5 3.930262500637837e-5 3.979699117044083e-5 4.029757569534124e-5
      4.080445679843016e-5 4.131771368091112e-5 4.183742654021627e-5 4.236367658253723e-5
      4.289654603551377e-5 4.343611816108207e-5 4.398247726848452e-5 4.453570872744322e-5
      4.509589898149918e-5 4.566313556151927e-5 4.623750709937326e-5 4.681910334178249e-5
      4.740801516434305e-5 4.800433458572541e-5 4.860815478205232e-5 4.921957010145804e-5
      4.983867607883008e-5 5.046556945073704e-5 5.110034817054364e-5 5.174311142371635e-5
      5.239395964332122e-5 5.305299452571671e-5 5.372031904644397e-5 5.439603747631709e-5
      5.508025539771544e-5 5.577307972108137e-5 5.647461870162495e-5 5.718498195623916e-5
      5.790428048062778e-5 5.863262666664860e-5 5.937013431987516e-5 6.011691867737868e-5
      6.087309642573434e-5 6.163878571925383e-5 6.241410619844697e-5 6.319917900871617e-5
      6.399412681928518e-5 6.479907384236679e-5 6.561414585257098e-5 6.643947020655761e-5
      6.727517586293624e-5 6.812139340241585e-5 6.897825504820863e-5 6.984589468669006e-5
      7.072444788831880e-5 7.161405192882015e-5 7.251484581063528e-5 7.342697028464096e-5
      7.435056787214192e-5 7.528578288714025e-5 7.623276145888489e-5 7.719165155470423e-5
      7.816260300312662e-5 7.914576751729130e-5 8.014129871865382e-5 8.114935216098990e-5
      8.217008535470082e-5 8.320365779142470e-5 8.425023096895771e-5 8.530996841648793e-5
      8.638303572014784e-5 8.746960054888655e-5 8.856983268066941e-5 8.968390402900532e-5
      9.081198866980900e-5 9.195426286860092e-5 9.311090510804831e-5 9.428209611585453e-5
      9.546801889299722e-5 9.666885874232310e-5 9.788480329750195e-5 9.911604255234405e-5
      1.003627688904882e-4 1.016251771154611e-4 1.029034644811162e-4 1.041978307224555e-4
      1.055084780868370e-4 1.068356113655784e-4 1.081794379259544e-4 1.095401677435990e-4
      1.109180134353149e-4 1.123131902922944e-4 1.137259163137601e-4 1.151564122410270e-4
      1.166049015919940e-4 1.180716106960694e-4 1.195567687295345e-4 1.210606077513538e-4
      1.225833627394340e-4 1.241252716273399e-4 1.256865753414726e-4 1.272675178387135e-4
      1.288683461445446e-4 1.304893103916455e-4 1.321306638589775e-4 1.337926630113596e-4
      1.354755675395403e-4 1.371796404007764e-4 1.389051478599192e-4 1.406523595310198e-4
      1.424215484194568e-4 1.442129909645929e-4 1.460269670829710e-4 1.478637602120500e-4
      1.497236573544931e-4 1.516069491230133e-4 1.535139297857805e-4 1.554448973124033e-4
      1.574001534204863e-4 1.593800036227742e-4 1.613847572748895e-4 1.634147276236686e-4
      1.654702318561090e-4 1.675515911489286e-4 1.696591307187514e-4 1.717931798729236e-4
      1.739540720609665e-4 1.761421449266814e-4 1.783577403609051e-4 1.806012045549317e-4
      1.828728880546063e-4 1.851731458150969e-4 1.875023372563589e-4 1.898608263192938e-4
      1.922489815226157e-4 1.946671760204344e-4 1.971157876605595e-4 1.995951990435418e-4
      2.021057975824543e-4 2.046479755634263e-4 2.072221302069400e-4 2.098286637298949e-4
      2.124679834084575e-4 2.151405016416971e-4 2.178466360160248e-4 2.205868093704429e-4
      2.233614498626120e-4 2.261709910357547e-4 2.290158718863952e-4 2.318965369329543e-4
      2.348134362852065e-4 2.377670257146097e-4 2.407577667255217e-4 2.437861266273101e-4
      2.468525786073706e-4 2.499576018050642e-4 2.531016813865822e-4 2.562853086207565e-4
      2.595089809558193e-4 2.627732020971314e-4 2.660784820858875e-4 2.694253373788102e-4
      2.728142909288488e-4 2.762458722668899e-4 2.797206175844992e-4 2.832390698177022e-4
      2.868017787318184e-4 2.904093010073643e-4 2.940622003270350e-4 2.977610474637809e-4
      3.015064203699926e-4 3.052989042678067e-4 3.091390917405481e-4 3.130275828253223e-4
      3.169649851067725e-4 3.209519138120160e-4 3.249889919067742e-4 3.290768501927133e-4
      3.332161274060069e-4 3.374074703171412e-4 3.416515338319734e-4 3.459489810940623e-4
      3.503004835882858e-4 3.547067212457619e-4 3.591683825500889e-4 3.636861646449233e-4
      3.682607734429086e-4 3.728929237359768e-4 3.775833393070353e-4 3.823327530430596e-4
      3.871419070496092e-4 3.920115527667813e-4 3.969424510866272e-4 4.019353724720411e-4
      4.069910970771473e-4 4.121104148692019e-4 4.172941257520248e-4 4.225430396909882e-4
      4.278579768395737e-4 4.332397676675240e-4 4.386892530906056e-4 4.442072846020029e-4
      4.497947244053661e-4 4.554524455495319e-4 4.611813320649400e-4 4.669822791017642e-4
      4.728561930697806e-4 4.788039917799977e-4 4.848266045880649e-4 4.909249725394860e-4
      4.971000485166613e-4 5.033527973877749e-4 5.096841961575600e-4 5.160952341199550e-4
      5.225869130126853e-4 5.291602471737851e-4 5.358162637000905e-4 5.425560026077259e-4
      5.493805169946077e-4 5.562908732049927e-4 5.632881509960991e-4 5.703734437068169e-4
      5.775478584285480e-4 5.848125161781887e-4 5.921685520732924e-4 5.996171155094339e-4
      6.071593703398042e-4 6.147964950570656e-4 6.225296829774928e-4 6.303601424274319e-4
      6.382890969321022e-4 6.463177854067781e-4 6.544474623503675e-4 6.626793980414327e-4
      6.710148787366739e-4 6.794552068719073e-4 6.880017012655775e-4 6.966556973248206e-4
      7.054185472541277e-4 7.142916202666287e-4 7.232763027980332e-4 7.323739987232678e-4
      7.415861295758290e-4 7.509141347699053e-4 7.603594718252859e-4 7.699236165951023e-4
      7.796080634964340e-4 7.894143257438115e-4 7.993439355856630e-4 8.093984445437275e-4
      8.195794236554848e-4 8.298884637196366e-4 8.403271755446656e-4 8.508971902005324e-4
      8.616001592735321e-4 8.724377551243563e-4 8.834116711494080e-4 8.945236220453921e-4
      9.057753440772427e-4 9.171685953494199e-4 9.287051560806137e-4 9.403868288819110e-4
      9.522154390384532e-4 9.641928347946426e-4 9.763208876429340e-4 9.886014926162590e-4
      1.001036568584132e-3 1.013628058552470e-3 1.026377929967200e-3 1.039288175021669e-3
      1.052360810967933e-3 1.065597880431956e-3 1.079001451732772e-3 1.092573619205667e-3
      1.106316503529421e-3 1.120232252057670e-3 1.134323039154433e-3 1.148591066533862e-3
      1.163038563604264e-3 1.177667787816450e-3 1.192481025016464e-3 1.207480589802760e-3
      1.222668825887851e-3 1.238048106464525e-3 1.253620834576664e-3 1.269389443494715e-3
      1.285356397095907e-3 1.301524190249222e-3 1.317895349205236e-3 1.334472431990841e-3
      1.351258028808951e-3 1.368254762443216e-3 1.385465288667851e-3 1.402892296662591e-3
      1.420538509432890e-3 1.438406684235397e-3 1.456499613008776e-3 1.474820122809960e-3
      1.493371076255877e-3 1.512155371970747e-3 1.531175945038992e-3 1.550435767463849e-3
      1.569937848631759e-3 1.589685235782582e-3 1.609681014485735e-3 1.629928309122324e-3
      1.650430283373326e-3 1.671190140713933e-3 1.692211124914089e-3 1.713496520545344e-3
      1.735049653494069e-3 1.756873891481138e-3 1.778972644588139e-3 1.801349365790206e-3
      1.824007551495550e-3 1.846950742091789e-3 1.870182522499128e-3 1.893706522730525e-3
      1.917526418458874e-3 1.941645931591346e-3 1.966068830850938e-3 1.990798932365347e-3
      2.015840100263251e-3 2.041196247278080e-3 2.066871335359393e-3 2.092869376291937e-3
      2.119194432322502e-3 2.145850616794653e-3 2.172842094791445e-3 2.200173083786230e-3
      2.227847854301643e-3 2.255870730576881e-3 2.284246091243378e-3 2.312978370008967e-3
      2.342072056350661e-3 2.371531696216142e-3 2.401361892734074e-3 2.431567306933356e-3
      2.462152658471408e-3 2.493122726371635e-3 2.524482349770156e-3 2.556236428671925e-3
      2.588389924716379e-3 2.620947861952691e-3 2.653915327624793e-3 2.687297472966268e-3
      2.721099514005242e-3 2.755326732379401e-3 2.789984476161250e-3 2.825078160693768e-3
      2.860613269436558e-3 2.896595354822660e-3 2.933030039126124e-3 2.969923015340497e-3
      3.007280048068373e-3 3.045106974422119e-3 3.083409704935933e-3 3.122194224489391e-3
      3.161466593242581e-3 3.201232947583017e-3 3.241499501084473e-3 3.282272545477852e-3
      3.323558451634301e-3 3.365363670560649e-3 3.407694734407408e-3 3.450558257489427e-3
      3.493960937319391e-3 3.537909555654334e-3 3.582410979555279e-3 3.627472162460252e-3
      3.673100145270760e-3 3.719302057451943e-3 3.766085118146584e-3 3.813456637303096e-3
      3.861424016817725e-3 3.909994751691109e-3 3.959176431199387e-3 4.008976740080051e-3
      4.059403459732679e-3 4.110464469434810e-3 4.162167747573097e-3 4.214521372889934e-3
      4.267533525745798e-3 4.321212489397425e-3 4.375566651292095e-3 4.430604504378189e-3
      4.486334648432223e-3 4.542765791402598e-3 4.599906750770208e-3 4.657766454926209e-3
      4.716353944567092e-3 4.775678374107305e-3 4.835749013109670e-3 4.896575247733741e-3
      4.958166582202431e-3 5.020532640287057e-3 5.083683166811078e-3 5.147628029172751e-3
      5.212377218886912e-3 5.277940853146189e-3 5.344329176401824e-3 5.411552561964388e-3
      5.479621513624654e-3 5.548546667294801e-3 5.618338792670317e-3 5.689008794912789e-3
      5.760567716353838e-3 5.833026738220538e-3 5.906397182382471e-3 5.980690513120810e-3
      6.055918338919632e-3 6.132092414279767e-3 6.209224641555479e-3 6.287327072814199e-3
      6.366411911719712e-3 6.446491515438996e-3 6.527578396573053e-3 6.609685225112040e-3
      6.692824830414958e-3 6.777010203214290e-3 6.862254497645806e-3 6.948571033303939e-3
      7.035973297323008e-3 7.124474946484584e-3 7.214089809351409e-3 7.304831888428120e-3
      7.396715362349187e-3 7.489754588094365e-3 7.583964103231954e-3 7.679358628190371e-3
      7.775953068558216e-3 7.873762517413319e-3 7.972802257681066e-3 8.073087764522368e-3
      8.174634707751704e-3 8.277458954285546e-3 8.381576570621613e-3 8.487003825349294e-3
      8.593757191691630e-3 8.701853350079302e-3 8.811309190756983e-3 8.922141816422460e-3
      9.034368544899001e-3 9.148006911841245e-3 9.263074673475231e-3 9.379589809372819e-3
      9.497570525261034e-3 9.617035255866789e-3 9.738002667797284e-3 9.860491662456743e-3
      9.984521378999787e-3 1.011011119732196e-2 1.023728074108790e-2 1.036604988079754e-2
      1.049643873689095e-2 1.062846768289218e-2 1.076215734859263e-2 1.089752862327458e-2
      1.103460265897512e-2 1.117340087379120e-2 1.131394495522626e-2 1.145625686357897e-2
      1.160035883537456e-2 1.174627338683929e-2 1.189402331741870e-2 1.204363171334002e-2
      1.219512195121951e-2 1.234851770171506e-2 1.250384293322475e-2 1.266112191563202e-2
      1.282037922409786e-2 1.298163974290072e-2 1.314492866932478e-2 1.331027151759697e-2
      1.347769412287376e-2 1.364722264527782e-2 1.381888357398569e-2 1.399270373136674e-2
      1.416871027717419e-2 1.434693071278892e-2 1.452739288551657e-2 1.471012499293879e-2
      1.489515558731915e-2 1.508251358006445e-2 1.527222824624226e-2 1.546432922915513e-2
      1.565884654497246e-2 1.585581058742062e-2 1.605525213253197e-2 1.625720234345370e-2
      1.646169277531712e-2 1.666875538016825e-2 1.687842251196038e-2 1.709072693160944e-2
      1.730570181211290e-2 1.752338074373323e-2 1.774379773924636e-2 1.796698723925629e-2
      1.819298411757647e-2 1.842182368667894e-2 1.865354170321195e-2 1.888817437358699e-2
      1.912575835963621e-2 1.936633078434078e-2 1.960992923763151e-2 1.985659178226233e-2
      2.010635695975766e-2 2.035926379643467e-2 2.061535180950112e-2 2.087466101323007e-2
      2.113723192521215e-2 2.140310557268657e-2 2.167232349895169e-2 2.194492776985621e-2
      2.222096098037207e-2 2.250046626125001e-2 2.278348728575881e-2 2.307006827650939e-2
      2.336025401236459e-2 2.365408983543604e-2 2.395162165816888e-2 2.425289597051576e-2
      2.455795984720094e-2 2.486686095507580e-2 2.517964756056692e-2 2.549636853721777e-2
      2.581707337332530e-2 2.614181217967268e-2 2.647063569735906e-2 2.680359530572809e-2
      2.714074303039596e-2 2.748213155138059e-2 2.782781421133298e-2 2.817784502387201e-2
      2.853227868202429e-2 2.889117056677002e-2 2.925457675569632e-2 2.962255403175962e-2
      2.999515989215793e-2 3.037245255731503e-2 3.075449097997743e-2 3.114133485442593e-2
      3.153304462580301e-2 3.192968149955734e-2 3.233130745100742e-2 3.273798523502527e-2
      3.314977839584202e-2 3.356675127697692e-2 3.398896903129087e-2 3.441649763116707e-2
      3.484940387881910e-2 3.528775541672879e-2 3.573162073821591e-2 3.618106919813986e-2
      3.663617102373698e-2 3.709699732559348e-2 3.756362010875647e-2 3.803611228398531e-2
      3.851454767914353e-2 3.899900105073506e-2 3.948954809558492e-2 3.998626546266675e-2
      4.048923076507990e-2 4.099852259217599e-2 4.151422052183924e-2 4.203640513292045e-2
      4.256515801782734e-2 4.310056179527406e-2 4.364270012319000e-2 4.419165771179196e-2
      4.474752033682009e-2 4.531037485294028e-2 4.588030920731604e-2 4.645741245334954e-2
      4.704177476459723e-2 4.763348744885921e-2 4.823264296244607e-2 4.883933492462597e-2
      4.945365813225216e-2 5.007570857457575e-2 5.070558344824403e-2 5.134338117248731e-2
      5.198920140449783e-2 5.264314505500054e-2 5.330531430402142e-2 5.397581261685290e-2
      5.465474476022029e-2 5.534221681865253e-2 5.603833621105720e-2 5.674321170750572e-2
      5.745695344622860e-2 5.817967295082442e-2 5.891148314768638e-2 5.965249838364642e-2
      6.040283444384285e-2 6.116260856981174e-2 6.193193947780586e-2 6.271094737734502e-2
      6.349975398999818e-2 6.429848256840353e-2 6.510725791552659e-2 6.592620640416057e-2
      6.675545599667323e-2 6.759513626500030e-2 6.844537841089213e-2 6.930631528641400e-2
      7.017808141470404e-2 7.106081301099366e-2 7.195464800389047e-2 7.285972605693075e-2
      7.377618859040183e-2 7.470417880343884e-2 7.564384169640087e-2 7.659532409352642e-2
      7.755877466587596e-2 7.853434395456176e-2 7.952218439426967e-2 8.052245033707848e-2
      8.153529807657648e-2 8.256088587228382e-2 8.359937397438028e-2 8.465092464874434e-2
      8.571570220230855e-2 8.679387300873167e-2 8.788560553439593e-2 8.899107036472971e-2
      9.011044023086159e-2 9.124389003661081e-2 9.239159688581523e-2 9.355374011000521e-2
      9.473050129642411e-2 9.592206431640111e-2 9.712861535408269e-2 9.835034293552287e-2
      9.958743795814202e-2 1.008400937205546e-1 1.021085059527715e-1 1.033928728467851e-1
      1.046933950875353e-1 1.060102758842683e-1 1.073437210022880e-1 1.086939387951066e-1
      1.100611402370016e-1 1.114455389559796e-1 1.128473512671572e-1 1.142667962065602e-1
      1.157040955653479e-1 1.171594739244697e-1 1.186331586897547e-1 1.201253801274461e-1
      1.216363714001796e-1 1.231663686034153e-1 1.247156108023294e-1 1.262843400691670e-1
      1.278728015210679e-1 1.294812433583660e-1 1.311099169033702e-1 1.327590766396360e-1
      1.344289802517269e-1 1.361198886654801e-1 1.378320660887755e-1 1.395657800528185e-1
      1.413213014539439e-1 1.430989045959416e-1 1.448988672329194e-1 1.467214706127017e-1
      1.485669995207741e-1 1.504357423247837e-1 1.523279910195953e-1 1.542440412729174e-1
      1.561841924715005e-1 1.581487477679163e-1 1.601380141279272e-1 1.621523023784486e-1
      1.641919272561184e-1 1.662572074564727e-1 1.683484656837451e-1 1.704660287012884e-1
      1.726102273826318e-1 1.747813967631823e-1 1.769798760925723e-1 1.792060088876700e-1
      1.814601429862543e-1 1.837426306013633e-1 1.860538283763315e-1 1.883940974405125e-1
      1.907638034657094e-1 1.931633167233101e-1 1.955930121421424e-1 1.980532693670592e-1
      2.005444728182569e-1 2.030670117513433e-1 2.056212803181591e-1 2.082076776283642e-1
      2.108266078118008e-1 2.134784800816377e-1 2.161637087983127e-1 2.188827135342763e-1
      2.216359191395496e-1 2.244237558081106e-1 2.272466591451100e-1 2.301050702349376e-1
      2.329994357101423e-1 2.359302078212173e-1 2.388978445072685e-1 2.419028094675650e-1
      2.449455722339960e-1 2.480266082444345e-1 2.511463989170248e-1 2.543054317254078e-1
      2.575042002748857e-1 2.607432043795530e-1 2.640229501403912e-1 2.673439500243473e-1
      2.707067229444106e-1 2.741117943406906e-1 2.775596962625211e-1 2.810509674515927e-1
      2.845861534261307e-1 2.881658065661372e-1 2.917904861996970e-1 2.954607586903778e-1
      2.991771975257241e-1 3.029403834068640e-1 3.067509043392487e-1 3.106093557245255e-1
      3.145163404535739e-1 3.184724690007072e-1 3.224783595190586e-1 3.265346379371726e-1
      3.306419380568038e-1 3.348009016519524e-1 3.390121785691425e-1 3.432764268289592e-1
      3.475943127288697e-1 3.519665109473297e-1 3.563937046492066e-1 3.608765855925242e-1
      3.654158542365491e-1 3.700122198512434e-1 3.746664006280846e-1 3.793791237922886e-1
      3.841511257164386e-1 3.889831520355427e-1 3.938759577635454e-1 3.988303074112948e-1
      4.038469751060038e-1 4.089267447122069e-1 4.140704099542384e-1 4.192787745402589e-1
      4.245526522878299e-1 4.298928672510797e-1 4.353002538494623e-1 4.407756569981334e-1
      4.463199322399761e-1 4.519339458792755e-1 4.576185751170854e-1 4.633747081882903e-1
      4.692032445003919e-1 4.751050947740491e-1 4.810811811853727e-1 4.871324375100236e-1
      4.932598092691150e-1 4.994642538769488e-1 5.057467407906197e-1 5.121082516614878e-1
      5.185497804885705e-1 5.250723337738532e-1 5.316769306795550e-1 5.383646031873815e-1
      5.451363962597665e-1 5.519933680031556e-1 5.589365898333356e-1 5.659671466428412e-1
      5.730861369704798e-1 5.802946731729720e-1 5.875938815987660e-1 5.949849027640300e-1
      6.024688915308559e-1 6.100470172877173e-1 6.177204641321788e-1 6.254904310559231e-1
      6.333581321320914e-1 6.413247967049811e-1 6.493916695821427e-1 6.575600112288727e-1
      6.658310979651736e-1 6.742062221651767e-1 6.826866924590751e-1 6.912738339376082e-1
      6.999689883591005e-1 7.087735143591218e-1 7.176887876627739e-1 7.267162012996462e-1
      7.358571658214885e-1 7.451131095226021e-1 7.544854786630229e-1 7.639757376944990e-1
      7.735853694893091e-1 7.833158755719750e-1 7.931687763538660e-1 8.031456113707767e-1
      8.132479395234782e-1 8.234773393212945e-1 8.338354091287588e-1 8.443237674153494e-1
      8.549440530083885e-1 8.656979253491089e-1 8.765870647519399e-1 8.876131726670701e-1
      8.987779719462909e-1 9.100832071122063e-1 9.215306446308132e-1 9.331220731875108e-1
      9.448593039665973e-1 9.567441709342580e-1 9.687785311251382e-1 9.809642649325038e-1
      9.933032764020505e-1 1.005797493529428e0 1.018448868561479e0 1.031259378301293e0
      1.044231024417081e0 1.057365833754938e0 1.070665858655548e0 1.084133177274858e0
      1.097769893908803e0 1.111578139322103e0 1.125560071081194e0 1.139717873891363e0
      1.154053759938099e0 1.168569969232767e0 1.183268769962603e0 1.198152458845123e0
      1.213223361486999e0 1.228483832747428e0 1.243936257106094e0 1.259583049035742e0
      1.275426653379442e0 1.291469545732610e0 1.307714232829812e0 1.324163252936458e0
      1.340819176245410e0 1.357684605278565e0 1.374762175293528e0 1.392054554695354e0
      1.409564445453508e0 1.427294583524048e0 1.445247739277114e0 1.463426717929824e0
      1.481834359984573e0 1.500473541672885e0 1.519347175404823e0 1.538458210224051e0
      1.557809632268647e0 1.577404465237670e0 1.597245770863641e0 1.617336649390935e0
      1.637680240060189e0 1.658279721598843e0 1.679138312717789e0 1.700259272614331e0
      1.721645901481427e0 1.743301541023342e0 1.765229574977819e0 1.787433429644770e0
      1.809916574421666e0 1.832682522345622e0 1.855734830642312e0 1.879077101281816e0
      1.902712981541404e0 1.926646164575457e0 1.950880389992520e0 1.975419444439614e0
      2.000267162193927e0 2.025427425761904e0 2.050904166485920e0 2.076701365158550e0
      2.102823052644565e0 2.129273310510786e0 2.156056271663811e0 2.183176120995813e0
      2.210637096038431e0 2.238443487624878e0 2.266599640560419e0 2.295109954301226e0
      2.323978883641829e0 2.353210939411178e0 2.382810689177451e0 2.412782757961777e0
      2.443131828960876e0 2.473862644278840e0 2.504980005668090e0 2.536488775279642e0
      2.568393876422863e0 2.600700294334708e0 2.633413076958709e0 2.666537335733710e0
      2.700078246392526e0 2.734041049770699e0 2.768431052625343e0 2.803253628464376e0
      2.838514218386126e0 2.874218331929495e0 2.910371547934876e0 2.946979515415814e0
      2.984047954441712e0 3.021582657031589e0 3.059589488059080e0 3.098074386168869e0
      3.137043364704573e0 3.176502512648375e0 3.216457995572430e0 3.256916056602221e0
      3.297883017392110e0 3.339365279113056e0 3.381369323452853e0 3.423901713628897e0
      3.466969095413670e0 3.510578198173212e0 3.554735835918539e0 3.599448908370394e0
      3.644724402037324e0 3.690569391307315e0 3.736991039553227e0 3.783996600252030e0
      3.831593418118222e0 3.879788930251440e0 3.928590667298494e0 3.978006254630102e0
      4.028043413532304e0 4.078709962412988e0 4.130013818023507e0 4.181962996695663e0
      4.234565615594330e0 4.287829893985717e0 4.341764154521696e0 4.396376824540216e0
      4.451676437382059e0 4.507671633724259e0 4.564371162930148e0 4.621783884416531e0
      4.679918769037954e0 4.738784900488400e0 4.798391476720688e0 4.858747811383609e0
      4.919863335277258e0 4.981747597826592e0 5.044410268573522e0 5.107861138687857e0
      5.172110122497129e0 5.237167259035780e0 5.303042713613764e0 5.369746779404865e0
      5.437289879055093e0 5.505682566311165e0 5.574935527669622e0 5.645059584046580e0
      5.716065692468500e0 5.787964947784304e0 5.860768584398895e0 5.934487978028624e0
      6.009134647478741e0 6.084720256443195e0 6.161256615327189e0 6.238755683092490e0
      6.317229569126122e0 6.396690535132445e0 6.477150997049038e0 6.558623526986797e0
      6.641120855194261e0 6.724655872046815e0 6.809241630060805e0 6.894891345932990e0
      6.981618402605754e0 7.069436351358127e0 7.158358913923278e0 7.248399984632539e0
      7.339573632586369e0 7.431894103852782e0 7.525375823693215e0 7.620033398816596e0
      7.715881619661635e0 7.812935462707816e0 7.911210092815598e0 8.010720865595850e0
      8.111483329809291e0 8.213513229795970e0 8.316826507935311e0 8.421439307137248e0
      8.527367973364461e0 8.634629058186578e0 8.743239321366341e0 8.853215733478310e0
      8.964575478560658e0 9.077335956800086e0 9.191514787250748e0 9.307129810587215e0
      9.424199091892072e0 9.542740923478739e0 9.662773827749538e0 9.784316560089987e0
      9.907388111799317e0 1.003200771305784e1 1.015819483593182e1 1.028596919741590e1
      1.041535076251404e1 1.054635974735905e1 1.067901662237129e1 1.081334211545743e1
      1.094935721524900e1 1.108708317438210e1 1.122654151281806e1 1.136775402120596e1
      1.151074276428756e1 1.165553008434485e1 1.180213860469118e1 1.195059123320615e1
      1.210091116591496e1 1.225312189061295e1 1.240724719053550e1 1.256331114807432e1
      1.272133814854029e1 1.288135288397372e1 1.304338035700261e1 1.320744588474922e1
      1.337357510278608e1 1.354179396914152e1 1.371212876835562e1 1.388460611558733e1
      1.405925296077303e1 1.423609659283763e1 1.441516464395844e1 1.459648509388273e1
      1.478008627429974e1 1.496599687326740e1 1.515424593969507e1 1.534486288788240e1
      1.553787750211529e1 1.573331994131998e1 1.593122074377516e1 1.613161083188387e1
      1.633452151700511e1 1.653998450434620e1 1.674803189791698e1 1.695869620554592e1
      1.717201034395970e1 1.738800764392649e1 1.760672185546379e1 1.782818715311219e1
      1.805243814127495e1 1.827950985962527e1 1.850943778858113e1 1.874225785484917e1
      1.897800643703849e1 1.921672037134461e1 1.945843695730548e1 1.970319396362946e1
      1.995102963409667e1 2.020198269353494e1 2.045609235387029e1 2.071339832025417e1
      2.097394079726737e1 2.123776049520191e1 2.150489863642244e1 2.177539696180691e1
      2.204929773726906e1 2.232664376036234e1 2.260747836696706e1 2.289184543806191e1
      2.317978940658025e1 2.347135526435302e1 2.376658856913872e1 2.406553545174181e1
      2.436824262322099e1 2.467475738218758e1 2.498512762219632e1 2.529940183922870e1
      2.561762913927046e1 2.593985924598474e1 2.626614250848122e1 2.659652990918353e1
      2.693107307179526e1 2.726982426936610e1 2.761283643245996e1 2.796016315742511e1
      2.831185871476899e1 2.866797805763802e1 2.902857683040398e1 2.939371137735883e1
      2.976343875151830e1 3.013781672353689e1 3.051690379073445e1 3.090075918623639e1
      3.128944288822931e1 3.168301562933233e1 3.208153890608703e1 3.248507498856625e1
      3.289368693010378e1 3.330743857714693e1 3.372639457923220e1 3.415062039908736e1
      3.458018232285992e1 3.501514747047429e1 3.545558380611986e1 3.590156014887000e1
      3.635314618343571e1 3.681041247105370e1 3.727343046051158e1 3.774227249931237e1
      3.821701184497836e1 3.869772267649825e1 3.918448010591753e1 3.967736019007474e1
      4.017643994248593e1 4.068179734537766e1 4.119351136187237e1 4.171166194832630e1
      4.223633006682262e1 4.276759769782243e1 4.330554785297381e1 4.385026458808303e1
      4.440183301624828e1 4.496033932115846e1 4.552587077056018e1 4.609851572989283e1
      4.667836367609642e1 4.726550521159235e1 4.786003207843994e1 4.846203717267186e1
      4.907161455880870e1 4.968885948455732e1 5.031386839569327e1 5.094673895113032e1
      5.158757003818052e1 5.223646178800481e1 5.289351559125940e1 5.355883411393790e1