<?xml version="1.0" encoding="UTF-8"?>
<UPF version="2.0.1">
  <PP_INFO><![CDATA[
Generated using "atomic" code by A. Dal Corso  v.6.3MaX
Author: TM
Generation date:  4Apr2023
Pseudopotential type: NC
Element: Kr
Functional: PBE
    Suggested minimum cutoff for wavefunctions:   0. Ry
    Suggested minimum cutoff for charge density:   0. Ry
    The Pseudo was generated with a Scalar-Relativistic Calculation
    L component and cutoff radius for Local Potential:  2   3.2500
    Pseudopotential contains additional information for GIPAW reconstruction.
    Valence configuration:
    nl pn  l   occ       Rcut    Rcut US       E pseu
    4S  1  0  2.00      3.250      3.250    -1.694058
    4P  2  1  6.00      3.250      3.250    -0.679669
    Generation configuration:
    4S  1  0  2.00      3.250      3.250    -1.694058
    4P  2  1  6.00      3.250      3.250    -0.679669
    4D  3  2  0.00      3.250      3.250     0.100000
    Pseudization used: troullier-martins
]]>
    <PP_INPUTFILE><![CDATA[
 &input
   title='Kr',
   zed=36.,
   rel=1,
   config='[Ar] 3d10.0 4s2.0 4p6.0 4d-2.0',
   iswitch=3,
   dft='PBE'
 /
 &inputp
   pseudotype=2,
   file_pseudopw='Kr.pbe-n-nc.UPF',
   author='TM',
   lloc=2,
   nlcc=.true.,
   tm=.true.
 /
3
4S  1  0  2.00  0.00  3.25  3.25  0.0
4P  2  1  6.00  0.00  3.25  3.25  0.0
4D  3  2  0.00  0.10  3.25  3.25  0.0
]]></PP_INPUTFILE>
  </PP_INFO>
  <!--
 END OF HUMAN READABLE SECTION 
-->
  <PP_HEADER generated="Generated using &quot;atomic&quot; code by A. Dal Corso  v.6.3MaX" author="TM" date=" 4Apr2023" comment="" element="Kr" pseudo_type="NC" relativistic="scalar" is_ultrasoft="false" is_paw="false" is_coulomb="false" has_so="false" has_wfc="false" has_gipaw="true" paw_as_gipaw="false" core_correction="true" functional="PBE" z_valence="8.000000000000e0" total_psenergy="-4.650485836293e1" wfc_cutoff="0.000000000000e0" rho_cutoff="0.000000000000e0" l_max="2" l_max_rho="4" l_local="2" mesh_size="1217" number_of_wfc="2" number_of_proj="2"/>
  <PP_MESH dx="1.250000000000e-2" mesh="1217" xmin="-7.000000000000e0" rmax="1.000000000000e2" zmesh="3.600000000000e1">
    <PP_R>
      2.533005459873656e-5 2.564866746302839e-5 2.597128798379395e-5 2.629796657114594e-5
      2.662875426927833e-5 2.696370276444192e-5 2.730286439302052e-5 2.764629214970864e-5
      2.799403969579195e-5 2.834616136753207e-5 2.870271218465659e-5 2.906374785895607e-5
      2.942932480298917e-5 2.979950013889714e-5 3.017433170732939e-5 3.055387807648106e-5
      3.093819855124453e-5 3.132735318247590e-5 3.172140277637800e-5 3.212040890400161e-5
      3.252443391086595e-5 3.293354092670036e-5 3.334779387530835e-5 3.376725748455596e-5
      3.419199729648559e-5 3.462207967755693e-5 3.505757182901706e-5 3.549854179740068e-5
      3.594505848516244e-5 3.639719166144333e-5 3.685501197297198e-5 3.731859095510353e-5
      3.778800104299705e-5 3.826331558293381e-5 3.874460884377775e-5 3.923195602858004e-5
      3.972543328632984e-5 4.022511772385266e-5 4.073108741785841e-5 4.124342142714130e-5
      4.176219980493256e-5 4.228750361140921e-5 4.281941492635973e-5 4.335801686200923e-5
      4.390339357600602e-5 4.445563028457124e-5 4.501481327581408e-5 4.558102992321461e-5
      4.615436869927595e-5 4.673491918934836e-5 4.732277210562705e-5 4.791801930132618e-5
      4.852075378503110e-5 4.913106973523113e-5 4.974906251503527e-5 5.037482868707265e-5
      5.100846602858075e-5 5.165007354668337e-5 5.229975149386048e-5 5.295760138361323e-5
      5.362372600632526e-5 5.429822944532408e-5 5.498121709314435e-5 5.567279566799553e-5
      5.637307323043705e-5 5.708215920026274e-5 5.780016437359804e-5 5.852720094021206e-5
      5.926338250104744e-5 6.000882408597096e-5 6.076364217174682e-5 6.152795470023658e-5
      6.230188109682788e-5 6.308554228909463e-5 6.387906072569267e-5 6.468256039549204e-5
      6.549616684695092e-5 6.632000720773259e-5 6.715421020456955e-5 6.799890618337729e-5
      6.885422712962107e-5 6.972030668893884e-5 7.059728018802385e-5 7.148528465576943e-5
      7.238445884468049e-5 7.329494325255338e-5 7.421688014442918e-5 7.515041357482295e-5
      7.609568941023246e-5 7.705285535193024e-5 7.802206095904202e-5 7.900345767191577e-5
      7.999719883578455e-5 8.100343972472690e-5 8.202233756592905e-5 8.305405156425167e-5
      8.409874292710596e-5 8.515657488964285e-5 8.622771274025858e-5 8.731232384642167e-5
      8.841057768082408e-5 8.952264584786185e-5 9.064870211044857e-5 9.178892241716616e-5
      9.294348492975754e-5 9.411257005096420e-5 9.529636045271486e-5 9.649504110466816e-5
      9.770879930311470e-5 9.893782470024249e-5 1.001823093337703e-4 1.014424476569540e-4
      1.027184365689703e-4 1.040104754456828e-4 1.053187661707947e-4 1.066435131673934e-4
      1.079849234298925e-4 1.093432065563745e-4 1.107185747813414e-4 1.121112430088766e-4
      1.135214288462241e-4 1.149493526377899e-4 1.163952374995716e-4 1.178593093540206e-4
      1.193417969653428e-4 1.208429319752436e-4 1.223629489391224e-4 1.239020853627223e-4
      1.254605817392407e-4 1.270386815869076e-4 1.286366314870346e-4 1.302546811225448e-4
      1.318930833169855e-4 1.335520940740329e-4 1.352319726174934e-4 1.369329814318070e-4
      1.386553863030616e-4 1.403994563605226e-4 1.421654641186848e-4 1.439536855198535e-4
      1.457643999772607e-4 1.475978904187243e-4 1.494544433308561e-4 1.513343488038257e-4
      1.532379005766881e-4 1.551653960832805e-4 1.571171364986975e-4 1.590934267863496e-4
      1.610945757456150e-4 1.631208960600903e-4 1.651727043464471e-4 1.672503212039044e-4
      1.693540712643232e-4 1.714842832429306e-4 1.736412899896822e-4 1.758254285412708e-4
      1.780370401737884e-4 1.802764704560524e-4 1.825440693036004e-4 1.848401910333659e-4
      1.871651944190408e-4 1.895194427471341e-4 1.919033038737370e-4 1.943171502820003e-4
      1.967613591403368e-4 1.992363123613528e-4 2.017423966615247e-4 2.042800036216232e-4
      2.068495297478982e-4 2.094513765340355e-4 2.120859505238878e-4 2.147536633750020e-4
      2.174549319229382e-4 2.201901782464026e-4 2.229598297331989e-4 2.257643191470059e-4
      2.286040846950008e-4 2.314795700963280e-4 2.343912246514314e-4 2.373395033122596e-4
      2.403248667533510e-4 2.433477814438175e-4 2.464087197202294e-4 2.495081598604199e-4
      2.526465861582173e-4 2.558244889991150e-4 2.590423649368979e-4 2.623007167712281e-4
      2.656000536262085e-4 2.689408910299359e-4 2.723237509950507e-4 2.757491621003059e-4
      2.792176595731552e-4 2.827297853733852e-4 2.862860882777986e-4 2.898871239659584e-4
      2.935334551070182e-4 2.972256514476368e-4 3.009642899010042e-4 3.047499546369858e-4
      3.085832371733974e-4 3.124647364684352e-4 3.163950590142605e-4 3.203748189317673e-4
      3.244046380665403e-4 3.284851460860172e-4 3.326169805778783e-4 3.368007871496694e-4
      3.410372195296787e-4 3.453269396690859e-4 3.496706178453889e-4 3.540689327671408e-4
      3.585225716799965e-4 3.630322304740967e-4 3.675986137928039e-4 3.722224351428008e-4
      3.769044170055815e-4 3.816452909503373e-4 3.864457977482672e-4 3.913066874883260e-4
      3.962287196944238e-4 4.012126634441077e-4 4.062592974887284e-4 4.113694103751222e-4
      4.165438005688255e-4 4.217832765788319e-4 4.270886570839288e-4 4.324607710606136e-4
      4.379004579126246e-4 4.434085676021007e-4 4.489859607823854e-4 4.546335089325119e-4
      4.603520944933681e-4 4.661426110055822e-4 4.720059632491412e-4 4.779430673847607e-4
      4.839548510970420e-4 4.900422537394213e-4 4.962062264809455e-4 5.024477324548976e-4
      5.087677469092827e-4 5.151672573592190e-4 5.216472637412338e-4 5.282087785695071e-4
      5.348528270940813e-4 5.415804474610555e-4 5.483926908747994e-4 5.552906217622064e-4
      5.622753179390108e-4 5.693478707782016e-4 5.765093853805484e-4 5.837609807472787e-4
      5.911037899549215e-4 5.985389603323547e-4 6.060676536400771e-4 6.136910462517346e-4
      6.214103293379334e-4 6.292267090523604e-4 6.371414067202481e-4 6.451556590292105e-4
      6.532707182224751e-4 6.614878522945522e-4 6.698083451893576e-4 6.782334970008344e-4
      6.867646241760944e-4 6.954030597211153e-4 7.041501534090262e-4 7.130072719910120e-4
      7.219757994098708e-4 7.310571370162587e-4 7.402527037876525e-4 7.495639365500690e-4
      7.589922902025714e-4 7.685392379445993e-4 7.782062715061617e-4 7.879949013809195e-4
      7.979066570622063e-4 8.079430872820133e-4 8.181057602529801e-4 8.283962639134364e-4
      8.388162061755139e-4 8.493672151763915e-4 8.600509395326915e-4 8.708690485980803e-4
      8.818232327241098e-4 8.929152035243353e-4 9.041466941417619e-4 9.155194595196491e-4
      9.270352766757243e-4 9.386959449798489e-4 9.505032864351676e-4 9.624591459628062e-4
      9.745653916901400e-4 9.868239152426934e-4 9.992366320397130e-4 1.011805481593451e-3
      1.024532427812223e-3 1.037419459307267e-3 1.050468589703474e-3 1.063681857954018e-3
      1.077061328658945e-3 1.090609092387773e-3 1.104327266006148e-3 1.118217993006607e-3
      1.132283443843506e-3 1.146525816272154e-3 1.160947335692220e-3 1.175550255495453e-3
      1.190336857417783e-3 1.205309451895844e-3 1.220470378427984e-3 1.235822005939820e-3
      1.251366733154384e-3 1.267106988966928e-3 1.283045232824448e-3 1.299183955109972e-3
      1.315525677531693e-3 1.332072953516985e-3 1.348828368611388e-3 1.365794540882599e-3
      1.382974121329554e-3 1.400369794296649e-3 1.417984277893178e-3 1.435820324418039e-3
      1.453880720789788e-3 1.472168288982106e-3 1.490685886464726e-3 1.509436406649930e-3
      1.528422779344646e-3 1.547647971208233e-3 1.567114986216038e-3 1.586826866128758e-3
      1.606786690967736e-3 1.626997579496210e-3 1.647462689706631e-3 1.668185219314110e-3
      1.689168406256055e-3 1.710415529198118e-3 1.731929908046485e-3 1.753714904466622e-3
      1.775773922408544e-3 1.798110408638682e-3 1.820727853278455e-3 1.843629790349601e-3
      1.866819798326382e-3 1.890301500694728e-3 1.914078566518405e-3 1.938154711012324e-3
      1.962533696123045e-3 1.987219331116589e-3 2.012215473173651e-3 2.037526027992282e-3
      2.063154950398164e-3 2.089106244962568e-3 2.115383966628065e-3 2.141992221342131e-3
      2.168935166698699e-3 2.196217012587797e-3 2.223842021853350e-3 2.251814510959257e-3
      2.280138850663856e-3 2.308819466702849e-3 2.337860840480845e-3 2.367267509771580e-3
      2.397044069426958e-3 2.427195172095010e-3 2.457725528946870e-3 2.488639910412909e-3
      2.519943146928126e-3 2.551640129686914e-3 2.583735811407319e-3 2.616235207104908e-3
      2.649143394876379e-3 2.682465516693024e-3 2.716206779204168e-3 2.750372454550731e-3
      2.784967881188993e-3 2.819998464724752e-3 2.855469678757957e-3 2.891387065737963e-3
      2.927756237829565e-3 2.964582877789895e-3 3.001872739856370e-3 3.039631650645806e-3
      3.077865510064832e-3 3.116580292231770e-3 3.155782046410105e-3 3.195476897953679e-3
      3.235671049263806e-3 3.276370780758404e-3 3.317582451853323e-3 3.359312501956019e-3
      3.401567451471721e-3 3.444353902822258e-3 3.487678541477703e-3 3.531548137000989e-3
      3.575969544105673e-3 3.620949703726992e-3 3.666495644106397e-3 3.712614481889736e-3
      3.759313423239242e-3 3.806599764959513e-3 3.854480895637647e-3 3.902964296797728e-3
      3.952057544069825e-3 4.001768308373702e-3 4.052104357117428e-3 4.103073555411024e-3
      4.154683867295420e-3 4.206943356986852e-3 4.259860190136902e-3 4.313442635108417e-3
      4.367699064267435e-3 4.422637955291398e-3 4.478267892493802e-3 4.534597568165512e-3
      4.591635783932960e-3 4.649391452133404e-3 4.707873597207506e-3 4.767091357109413e-3
      4.827053984734587e-3 4.887770849365597e-3 4.949251438136070e-3 5.011505357513080e-3
      5.074542334798188e-3 5.138372219647341e-3 5.203004985609918e-3 5.268450731687092e-3
      5.334719683909840e-3 5.401822196936768e-3 5.469768755672057e-3 5.538569976903755e-3
      5.608236610962651e-3 5.678779543402058e-3 5.750209796698689e-3 5.822538531974939e-3
      5.895777050742863e-3 5.969936796670018e-3 6.045029357367584e-3 6.121066466200944e-3
      6.198060004123050e-3 6.276022001530857e-3 6.354964640145068e-3 6.434900254913581e-3
      6.515841335938828e-3 6.597800530429393e-3 6.680790644676171e-3 6.764824646053356e-3
      6.849915665044627e-3 6.936076997294826e-3 7.023322105687402e-3 7.111664622448057e-3
      7.201118351274767e-3 7.291697269494650e-3 7.383415530247966e-3 7.476287464699551e-3
      7.570327584278129e-3 7.665550582943701e-3 7.761971339483541e-3 7.859604919837029e-3
      7.958466579449724e-3 8.058571765657094e-3 8.159936120098138e-3 8.262575481159464e-3
      8.366505886450064e-3 8.471743575307201e-3 8.578304991333885e-3 8.686206784968164e-3
      8.795465816084816e-3 8.906099156629745e-3 9.018124093287494e-3 9.131558130182338e-3
      9.246418991613325e-3 9.362724624823736e-3 9.480493202805388e-3 9.599743127138181e-3
      9.720493030865429e-3 9.842761781405244e-3 9.966568483498660e-3 1.009193248219476e-2
      1.021887336587340e-2 1.034741096930592e-2 1.047756537675436e-2 1.060935692510970e-2
      1.074280620706949e-2 1.087793407435553e-2 1.101476164097203e-2 1.115331028650463e-2
      1.129360165946109e-2 1.143565768065385e-2 1.157950054662523e-2 1.172515273311571e-2
      1.187263699857575e-2 1.202197638772188e-2 1.217319423513749e-2 1.232631416891889e-2
      1.248136011436727e-2 1.263835629772705e-2 1.279732724997128e-2 1.295829781063468e-2
      1.312129313169485e-2 1.328633868150234e-2 1.345346024876007e-2 1.362268394655295e-2
      1.379403621642805e-2 1.396754383252614e-2 1.414323390576526e-2 1.432113388807679e-2
      1.450127157669490e-2 1.468367511849994e-2 1.486837301441640e-2 1.505539412386631e-2
      1.524476766927852e-2 1.543652324065477e-2 1.563069080019322e-2 1.582730068697008e-2
      1.602638362168019e-2 1.622797071143711e-2 1.643209345463376e-2 1.663878374586405e-2
      1.684807388090648e-2 1.705999656177050e-2 1.727458490180612e-2 1.749187243087806e-2
      1.771189310060483e-2 1.793468128966367e-2 1.816027180916242e-2 1.838869990807873e-2
      1.862000127876777e-2 1.885421206253930e-2 1.909136885530478e-2 1.933150871329561e-2
      1.957466915885315e-2 1.982088818629175e-2 2.007020426783535e-2 2.032265635962894e-2
      2.057828390782550e-2 2.083712685474950e-2 2.109922564513802e-2 2.136462123246031e-2
      2.163335508531680e-2 2.190546919391880e-2 2.218100607664937e-2 2.246000878670702e-2
      2.274252091883285e-2 2.302858661612223e-2 2.331825057692243e-2 2.361155806181662e-2
      2.390855490069606e-2 2.420928749992107e-2 2.451380284957209e-2 2.482214853079211e-2
      2.513437272322110e-2 2.545052421252439e-2 2.577065239801537e-2 2.609480730037433e-2
      2.642303956946428e-2 2.675540049224506e-2 2.709194200078703e-2 2.743271668038561e-2
      2.777777777777778e-2 2.812717920946207e-2 2.848097557012304e-2 2.883922214116182e-2
      2.920197489933402e-2 2.956929052549610e-2 2.994122641346199e-2 3.031784067897089e-2
      3.069919216876800e-2 3.108534046979949e-2 3.147634591852295e-2 3.187226961033534e-2
      3.227317340911898e-2 3.267911995690809e-2 3.309017268367664e-2 3.350639581724946e-2
      3.392785439333806e-2 3.435461426570237e-2 3.478674211644070e-2 3.522430546640889e-2
      3.566737268577059e-2 3.611601300468031e-2 3.657029652410061e-2 3.703029422675566e-2
      3.749607798822233e-2 3.796772058816101e-2 3.844529572168755e-2 3.892887801088816e-2
      3.941854301647939e-2 3.991436724961459e-2 4.041642818383892e-2 4.092480426719488e-2
      4.143957493447974e-2 4.196082061965759e-2 4.248862276842721e-2 4.302306385094814e-2
      4.356422737472692e-2 4.411219789766511e-2 4.466706104127177e-2 4.522890350404198e-2
      4.579781307500356e-2 4.637387864743453e-2 4.695719023275255e-2 4.754783897457959e-2
      4.814591716298323e-2 4.875151824889718e-2 4.936473685872330e-2 4.998566880911692e-2
      5.061441112195862e-2 5.125106203951391e-2 5.189572103978395e-2 5.254848885204916e-2
      5.320946747260824e-2 5.387876018071543e-2 5.455647155471802e-2 5.524270748839700e-2
      5.593757520751326e-2 5.664118328656155e-2 5.735364166573577e-2 5.807506166810715e-2
      5.880555601701874e-2 5.954523885369888e-2 6.029422575509564e-2 6.105263375193619e-2
      6.182058134701304e-2 6.259818853370024e-2 6.338557681470290e-2 6.418286922104180e-2
      6.499019033127756e-2 6.580766629097616e-2 6.663542483241940e-2 6.747359529456358e-2
      6.832230864324863e-2 6.918169749166201e-2 7.005189612105972e-2 7.093304050174797e-2
      7.182526831432908e-2 7.272871897121393e-2 7.364353363840577e-2 7.456985525755756e-2
      7.550782856830680e-2 7.645760013089187e-2 7.741931834905142e-2 7.839313349321388e-2
      7.937919772397683e-2 8.037766511588224e-2 8.138869168149181e-2 8.241243539576303e-2
      8.344905622073423e-2 8.449871613051849e-2 8.556157913661197e-2 8.663781131352209e-2
      8.772758082471581e-2 8.883105794889651e-2 8.994841510661010e-2 9.107982688718536e-2
      9.222547007601531e-2 9.338552368217861e-2 9.456016896641161e-2 9.574958946942992e-2
      9.695397104060671e-2 9.817350186701315e-2 9.940837250282168e-2 1.006587758990817e-1
      1.019249074338680e-1 1.032069649428084e-1 1.045051487499976e-1 1.058196616992962e-1
      1.071507091860270e-1 1.084984991890682e-1 1.098632423033494e-1 1.112451517727591e-1
      1.126444435234632e-1 1.140613361976448e-1 1.154960511876670e-1 1.169488126706655e-1
      1.184198476435784e-1 1.199093859586124e-1 1.214176603591599e-1 1.229449065161649e-1
      1.244913630649462e-1 1.260572716424863e-1 1.276428769251858e-1 1.292484266670963e-1
      1.308741717386318e-1 1.325203661657667e-1 1.341872671697301e-1 1.358751352071946e-1
      1.375842340109754e-1 1.393148306312378e-1 1.410671954772245e-1 1.428416023595081e-1
      1.446383285327736e-1 1.464576547391414e-1 1.482998652520328e-1 1.501652479205880e-1
      1.520540942146446e-1 1.539666992702784e-1 1.559033619359210e-1 1.578643848190541e-1
      1.598500743334925e-1 1.618607407472633e-1 1.638966982310838e-1 1.659582649074534e-1
      1.680457629003597e-1 1.701595183856107e-1 1.722998616418020e-1 1.744671271019213e-1
      1.766616534056064e-1 1.788837834520573e-1 1.811338644536142e-1 1.834122479900121e-1
      1.857192900633131e-1 1.880553511535354e-1 1.904207962749773e-1 1.928159950332510e-1
      1.952413216830361e-1 1.976971551865555e-1 2.001838792727907e-1 2.027018824974399e-1
      2.052515583036292e-1 2.078333050833913e-1 2.104475262399125e-1 2.130946302505675e-1
      2.157750307307438e-1 2.184891464984692e-1 2.212374016398550e-1 2.240202255753577e-1
      2.268380531268791e-1 2.296913245857076e-1 2.325804857813129e-1 2.355059881510106e-1
      2.384682888104971e-1 2.414678506252778e-1 2.445051422829892e-1 2.475806383666316e-1
      2.506948194287259e-1 2.538481720663980e-1 2.570411889974136e-1 2.602743691371649e-1
      2.635482176766257e-1 2.668632461612920e-1 2.702199725711080e-1 2.736189214014050e-1
      2.770606237448535e-1 2.805456173744459e-1 2.840744468275280e-1 2.876476634908805e-1
      2.912658256868770e-1 2.949294987607225e-1 2.986392551687876e-1 3.023956745680596e-1
      3.061993439067112e-1 3.100508575158157e-1 3.139508172022108e-1 3.178998323425311e-1
      3.218985199784278e-1 3.259475049129781e-1 3.300474198083165e-1 3.341989052844872e-1
      3.384026100195409e-1 3.426591908508963e-1 3.469693128779670e-1 3.513336495660895e-1
      3.557528828517512e-1 3.602277032491426e-1 3.647588099580564e-1 3.693469109731330e-1
      3.739927231944919e-1 3.786969725397435e-1 3.834603940574193e-1 3.882837320418235e-1
      3.931677401493280e-1 3.981131815161374e-1 4.031208288775257e-1 4.081914646885817e-1
      4.133258812464680e-1 4.185248808142164e-1 4.237892757460883e-1 4.291198886145008e-1
      4.345175523385604e-1 4.399831103142064e-1 4.455174165459910e-1 4.511213357805238e-1
      4.567957436415851e-1 4.625415267669484e-1 4.683595829469180e-1 4.742508212646072e-1
      4.802161622379907e-1 4.862565379637303e-1 4.923728922628234e-1 4.985661808280738e-1
      5.048373713734185e-1 5.111874437851409e-1 5.176173902749727e-1 5.241282155351357e-1
      5.307209368953241e-1 5.373965844816616e-1 5.441562013776672e-1 5.510008437872314e-1
      5.579315811996574e-1 5.649494965567674e-1 5.720556864221122e-1 5.792512611523176e-1
      5.865373450705730e-1 5.939150766423151e-1 6.013856086531132e-1 6.089501083887909e-1
      6.166097578178240e-1 6.243657537760173e-1 6.322193081535202e-1 6.401716480841833e-1
      6.482240161372978e-1 6.563776705117569e-1 6.646338852326431e-1 6.729939503503050e-1
      6.814591721419271e-1 6.900308733156346e-1 6.987103932171776e-1 7.074990880391971e-1
      7.163983310331407e-1 7.254095127238331e-1 7.345340411267445e-1 7.437733419680043e-1
      7.531288589071641e-1 7.626020537627806e-1 7.721944067408248e-1 7.819074166659626e-1
      7.917426012157588e-1 8.017014971578064e-1 8.117856605898595e-1 8.219966671829717e-1
      8.323361124276952e-1 8.428056118833878e-1 8.534068014306371e-1 8.641413375268796e-1
      8.750108974652214e-1 8.860171796365140e-1 8.971619037947423e-1 9.084468113257270e-1
      9.198736655192310e-1 9.314442518444713e-1 9.431603782290987e-1 9.550238753417007e-1
      9.670365968778347e-1 9.792004198496816e-1 9.915172448793308e-1 1.003988996495748e0
      1.016617623435501e0 1.029405098947239e0 1.042353421100028e0 1.055464613095550e0
      1.068740723584226e0 1.082183826985334e0 1.095796023811126e0 1.109579440995054e0
      1.123536232224095e0 1.137668578275272e0 1.151978687356412e0 1.166468795451167e0
      1.181141166668411e0 1.195998093595999e0 1.211041897658986e0 1.226274929482369e0
      1.241699569258357e0 1.257318227118299e0 1.273133343509264e0 1.289147389575360e0
      1.305362867543871e0 1.321782311116214e0 1.338408285863856e0 1.355243389629179e0
      1.372290252931394e0 1.389551539377578e0 1.407029946078852e0 1.424728204071825e0
      1.442649078745319e0 1.460795370272457e0 1.479169914048214e0 1.497775581132433e0
      1.516615278698451e0 1.535691950487347e0 1.555008577267893e0 1.574568177302330e0
      1.594373806817951e0 1.614428560484666e0 1.634735571898541e0 1.655298014071416e0
      1.676119099926724e0 1.697202082801483e0 1.718550256954663e0 1.740166958081914e0
      1.762055563836760e0 1.784219494358388e0 1.806662212806028e0 1.829387225900103e0
      1.852398084470145e0 1.875698384009615e0 1.899291765237728e0 1.923181914668296e0
      1.947372565185774e0 1.971867496628526e0 1.996670536379419e0 2.021785559963882e0
      2.047216491655440e0 2.072967305088914e0 2.099042023881297e0 2.125444722260442e0
      2.152179525701694e0 2.179250611572476e0 2.206662209785037e0 2.234418603457370e0
      2.262524129582448e0 2.290983179705920e0 2.319800200612258e0 2.348979695019611e0
      2.378526222283352e0 2.408444399108470e0 2.438738900270970e0 2.469414459348287e0
      2.500475869458939e0 2.531927984011457e0 2.563775717462719e0 2.596024046085882e0
      2.628678008747893e0 2.661742707696858e0 2.695223309359262e0 2.729125045147224e0
      2.763453212275943e0 2.798213174591365e0 2.833410363408325e0 2.869050278359190e0
      2.905138488253173e0 2.941680631946501e0 2.978682419223460e0 3.016149631688600e0
      3.054088123670100e0 3.092503823134510e0 3.131402732613037e0 3.170790930139418e0
      3.210674570199657e0 3.251059884693664e0 3.291953183908982e0 3.333360857506821e0
      3.375289375520416e0 3.417745289366015e0 3.460735232866540e0 3.504265923288116e0
      3.548344162389695e0 3.592976837485805e0 3.638170922522739e0 3.683933479168241e0
      3.730271657914876e0 3.777192699197364e0 3.824703934523853e0 3.872812787621532e0
      3.921526775596583e0 3.970853510108723e0 4.020800698560588e0 4.071376145301977e0
      4.122587752849350e0 4.174443523120583e0 4.226951558685268e0 4.280120064030803e0
      4.333957346844309e0 4.388471819310762e0 4.443671999427408e0 4.499566512334677e0
      4.556164091663944e0 4.613473580902114e0 4.671503934773485e0 4.730264220638920e0
      4.789763619912621e0 4.850011429496790e0 4.911017063234235e0 4.972790053379352e0
      5.035340052087538e0 5.098676832923333e0 5.162810292387620e0 5.227750451463902e0
      5.293507457184166e0 5.360091584214350e0 5.427513236459749e0 5.495782948690715e0
      5.564911388188662e0 5.634909356412914e0 5.705787790688427e0 5.777557765914739e0
      5.850230496296521e0 5.923817337095723e0 5.998329786405947e0 6.073779486949005e0
      6.150178227894088e0 6.227537946699925e0 6.305870730979947e0 6.385188820391079e0
      6.465504608546174e0 6.546830644950517e0 6.629179636962774e0 6.712564451780466e0
      6.796998118450566e0 6.882493829905287e0 6.969064945023461e0 7.056724990717980e0
      7.145487664049305e0 7.235366834365744e0 7.326376545470534e0 7.418531017816171e0
      7.511844650726472e0 7.606332024646404e0 7.702007903420388e0 7.798887236599153e0
      7.896985161775581e0 7.996317006950093e0 8.096898292925561e0 8.198744735732564e0
      8.301872249085015e0 8.406296946866663e0 8.512035145649016e0 8.619103367240733e0
      8.727518341269283e0 8.837297007794946e0 8.948456519957681e0 9.061014246657454e0
      9.174987775268026e0 9.290394914385139e0 9.407253696609098e0 9.525582381362344e0
      9.645399457742641e0 9.766723647411911e0 9.889573907521642e0 1.001396943367494e1
      1.013992966292580e1 1.026747427681637e1 1.039662320445201e1 1.052739662561543e1
      1.065981497391979e1 1.079389894000136e1 1.092966947475268e1 1.106714779259600e1
      1.120635537479820e1 1.134731397282724e1 1.149004561175080e1 1.163457259367790e1
      1.178091750124346e1 1.192910320113705e1 1.207915284767580e1 1.223108988642219e1
      1.238493805784771e1 1.254072140104210e1 1.269846425746969e1 1.285819127477277e1
      1.301992741062270e1 1.318369793661980e1 1.334952844224193e1 1.351744483884298e1
      1.368747336370158e1 1.385964058412061e1 1.403397340157860e1 1.421049905593289e1
      1.438924512967617e1 1.457023955224613e1 1.475351060438948e1 1.493908692258104e1
      1.512699750349804e1 1.531727170855108e1 1.550993926847183e1 1.570503028795848e1
      1.590257525037978e1 1.610260502253796e1 1.630515085949192e1 1.651024440944078e1
      1.671791771866895e1 1.692820323655356e1 1.714113382063455e1 1.735674274174891e1
      1.757506368922928e1 1.779613077616780e1 1.801997854474664e1 1.824664197163499e1
      1.847615647345449e1 1.870855791231304e1 1.894388260140821e1 1.918216731070151e1
      1.942344927266349e1 1.966776618809165e1 1.991515623200111e1 2.016565805958948e1
      2.041931081227705e1 2.067615412382242e1 2.093622812651559e1 2.119957345744866e1
      2.146623126486527e1 2.173624321459046e1 2.200965149654061e1 2.228649883131608e1
      2.256682847687622e1 2.285068423529840e1 2.313811045962247e1 2.342915206078065e1
      2.372385451461532e1 2.402226386898450e1 2.432442675095683e1 2.463039037409748e1
      2.494020254584496e1 2.525391167498146e1 2.557156677919670e1 2.589321749274690e1
      2.621891407421055e1 2.654870741434105e1 2.688264904401880e1 2.722079114230290e1
      2.756318654458406e1 2.790988875084061e1 2.826095193399754e1 2.861643094839150e1
      2.897638133834178e1 2.934085934682903e1 2.970992192428373e1 3.008362673748434e1
      3.046203217856830e1 3.084519737415570e1 3.123318219458779e1 3.162604726328226e1
      3.202385396620524e1 3.242666446146348e1 3.283454168901645e1 3.324754938051066e1
      3.366575206923829e1 3.408921510022019e1 3.451800464041655e1 3.495218768906546e1
      3.539183208815150e1 3.583700653300662e1 3.628778058304341e1 3.674422467262437e1
      3.720641012206720e1 3.767440914878856e1 3.814829487858868e1 3.862814135707681e1
      3.911402356124155e1 3.960601741116589e1 4.010419978188973e1 4.060864851542220e1
      4.111944243290407e1 4.163666134692423e1 4.216038607399036e1 4.269069844715645e1
      4.322768132880990e1 4.377141862361828e1 4.432199529164026e1 4.487949736160043e1
      4.544401194433131e1 4.601562724638515e1 4.659443258381565e1 4.718051839613451e1
      4.777397626044234e1 4.837489890573770e1 4.898338022740666e1 4.959951530189353e1
      5.022340040155732e1 5.085513300971424e1 5.149481183586940e1 5.214253683114103e1
      5.279840920387724e1 5.346253143547076e1 5.413500729637153e1 5.481594186230078e1
      5.550544153067003e1 5.620361403720503e1 5.691056847278050e1 5.762641530046537e1
      5.835126637278272e1 5.908523494918747e1 5.982843571376279e1 6.058098479314026e1
      6.134299977464475e1 6.211459972466722e1 6.289590520726992e1 6.368703830302385e1
      6.448812262808492e1 6.529928335350883e1 6.612064722480905e1 6.695234258176177e1
      6.779449937845836e1 6.864724920361181e1 6.951072530111737e1 7.038506259087177e1
      7.127039768985566e1 7.216686893347918e1 7.307461639719822e1 7.399378191840089e1
      7.492450911856972e1 7.586694342572355e1 7.682123209714002e1 7.778752424236565e1
      7.876597084651426e1 7.975672479385810e1 8.075994089171745e1 8.177577589464835e1
      8.280438852893690e1 8.384593951740008e1 8.490059160449860e1 8.596850958176708e1
      8.704986031356183e1 8.814481276313490e1 8.925353801903437e1 9.037620932183691e1
      9.151300209121795e1 9.266409395336025e1 9.382966476870930e1 9.500989666007658e1
      9.620497404109598e1 9.741508364504000e1 9.864041455399590e1 9.988115822841136e1
      1.011375085370100e2
      </PP_R>
    <PP_RAB>
      3.166256824842070e-7 3.206083432878549e-7 3.246410997974244e-7 3.287245821393243e-7
      3.328594283659791e-7 3.370462845555240e-7 3.412858049127565e-7 3.455786518713580e-7
      3.499254961973995e-7 3.543270170941510e-7 3.587839023082073e-7 3.632968482369509e-7
      3.678665600373647e-7 3.724937517362143e-7 3.771791463416174e-7 3.819234759560133e-7
      3.867274818905567e-7 3.915919147809489e-7 3.965175347047250e-7 4.015051113000201e-7
      4.065554238858244e-7 4.116692615837545e-7 4.168474234413545e-7 4.220907185569494e-7
      4.273999662060699e-7 4.327759959694616e-7 4.382196478627133e-7 4.437317724675085e-7
      4.493132310645304e-7 4.549648957680416e-7 4.606876496621498e-7 4.664823869387940e-7
      4.723500130374632e-7 4.782914447866726e-7 4.843076105472218e-7 4.903994503572505e-7