<UPF version="2.0.1">
  <PP_INFO>
Generated using Vanderbilt code, version   7  3  6
Author: kfg        Generation date:   13    5 2013
Automatically converted from original USPP format to UPF.v1.

Futher converted to UPF.v2 format.
Convert Q_IJ to Q_IJL use the same routine as 'upflib/upf_to_internal.f90' of QE.
The conversion is done by using PseudoPotentialIO.jl package.
Converted by: JYU on 2024-04-30

1        The Pseudo was generated with a Scalar-Relativistic Calculation
2.30000000000E+00    Local Potential cutoff radius
nl pn  l   occ               Rcut            Rcut US             E pseu
4D  4  2  9.50      0.00000000000      1.80000000000     -1.31480779800
5S  5  0  2.00      0.00000000000      2.25000000000     -0.72925322500
5P  5  1  0.00      0.00000000000      2.25000000000     -0.33010676700
</PP_INFO>
  <PP_HEADER element="Cd" pseudo_type="US" relativistic="scalar" is_ultrasoft="T" is_paw="F" is_coulomb="F" has_so="F" has_wfc="F" has_gipaw="F" core_correction="T" functional="PBE" z_valence="12.0" total_psenergy="-114.136351344" wfc_cutoff="0.0" rho_cutoff="0.0" l_max="2" mesh_size="889" number_of_wfc="3" number_of_proj="6"/>
  <PP_MESH>
    <PP_R>
0.00000000000000E+00 1.19209398672000E-09 2.41436597639000E-09 3.66757992880000E-09 
4.95251914345000E-09 6.26998674919000E-09 7.62080620615000E-09 9.00582182047000E-09 
1.04258992720000E-08 1.18819261554000E-08 1.33748125348000E-08 1.49054915128000E-08 
1.64749198137000E-08 1.80840783811000E-08 1.97339729916000E-08 2.14256348830000E-08 
2.31601213991000E-08 2.49385166504000E-08 2.67619321919000E-08 2.86315077175000E-08 
3.05484117729000E-08 3.25138424854000E-08 3.45290283134000E-08 3.65952288135000E-08 
3.87137354282000E-08 4.08858722933000E-08 4.31129970648000E-08 4.53965017684000E-08 
4.77378136688000E-08 5.01383961621000E-08 5.25997496906000E-08 5.51234126803000E-08 
5.77109625027000E-08 6.03640164608000E-08 6.30842327995000E-08 6.58733117428000E-08 
6.87329965556000E-08 7.16650746341000E-08 7.46713786226000E-08 7.77537875589000E-08 
8.09142280489000E-08 8.41546754708000E-08 8.74771552098000E-08 9.08837439238000E-08 
9.43765708416000E-08 9.79578190939000E-08 1.01629727077000E-07 1.05394589854000E-07 
1.09254760585000E-07 1.13212652004000E-07 1.17270737921000E-07 1.21431554772000E-07 
1.25697703204000E-07 1.30071849697000E-07 1.34556728235000E-07 1.39155142015000E-07 
1.43869965193000E-07 1.48704144688000E-07 1.53660702020000E-07 1.58742735199000E-07 
1.63953420659000E-07 1.69296015250000E-07 1.74773858268000E-07 1.80390373541000E-07 
1.86149071575000E-07 1.92053551744000E-07 1.98107504541000E-07 2.04314713882000E-07 
2.10679059475000E-07 2.17204519244000E-07 2.23895171814000E-07 2.30755199060000E-07 
2.37788888723000E-07 2.45000637087000E-07 2.52394951730000E-07 2.59976454340000E-07 
2.67749883602000E-07 2.75720098162000E-07 2.83892079665000E-07 2.92270935864000E-07 
3.00861903818000E-07 3.09670353161000E-07 3.18701789461000E-07 3.27961857659000E-07 
3.37456345600000E-07 3.47191187647000E-07 3.57172468394000E-07 3.67406426466000E-07 
3.77899458421000E-07 3.88658122743000E-07 3.99689143950000E-07 4.10999416788000E-07 
4.22596010546000E-07 4.34486173473000E-07 4.46677337308000E-07 4.59177121924000E-07 
4.71993340094000E-07 4.85134002372000E-07 4.98607322099000E-07 5.12421720539000E-07 
5.26585832141000E-07 5.41108509935000E-07 5.55998831067000E-07 5.71266102474000E-07 
5.86919866696000E-07 6.02969907847000E-07 6.19426257723000E-07 6.36299202080000E-07 
6.53599287057000E-07 6.71337325770000E-07 6.89524405071000E-07 7.08171892477000E-07 
7.27291443274000E-07 7.46895007803000E-07 7.66994838932000E-07 7.87603499708000E-07 
8.08733871215000E-07 8.30399160624000E-07 8.52612909445000E-07 8.75389001995000E-07 
8.98741674073000E-07 9.22685521859000E-07 9.47235511038000E-07 9.72406986152000E-07 
9.98215680192000E-07 1.02467772443000E-06 1.05180965851000E-06 1.07962844077000E-06 
1.10815145886000E-06 1.13739654059000E-06 1.16738196508000E-06 1.19812647421000E-06 
1.22964928430000E-06 1.26197009812000E-06 1.29510911724000E-06 1.32908705462000E-06 
1.36392514758000E-06 1.39964517106000E-06 1.43626945125000E-06 1.47382087950000E-06 
1.51232292668000E-06 1.55179965783000E-06 1.59227574718000E-06 1.63377649362000E-06 
1.67632783645000E-06 1.71995637166000E-06 1.76468936849000E-06 1.81055478653000E-06 
1.85758129315000E-06 1.90579828146000E-06 1.95523588863000E-06 2.00592501479000E-06 
2.05789734229000E-06 2.11118535553000E-06 2.16582236124000E-06 2.22184250934000E-06 
2.27928081423000E-06 2.33817317674000E-06 2.39855640650000E-06 2.46046824500000E-06 
2.52394738916000E-06 2.58903351550000E-06 2.65576730497000E-06 2.72419046837000E-06 
2.79434577240000E-06 2.86627706640000E-06 2.94002930978000E-06 3.01564860009000E-06 
3.09318220184000E-06 3.17267857607000E-06 3.25418741060000E-06 3.33775965109000E-06 
3.42344753293000E-06 3.51130461382000E-06 3.60138580731000E-06 3.69374741706000E-06 
3.78844717210000E-06 3.88554426284000E-06 3.98509937815000E-06 4.08717474319000E-06 
4.19183415841000E-06 4.29914303933000E-06 4.40916845751000E-06 4.52197918242000E-06 
4.63764572441000E-06 4.75624037886000E-06 4.87783727128000E-06 5.00251240369000E-06 
5.13034370210000E-06 5.26141106524000E-06 5.39579641447000E-06 5.53358374502000E-06 
5.67485917844000E-06 5.81971101649000E-06 5.96822979628000E-06 6.12050834687000E-06 
6.27664184733000E-06 6.43672788617000E-06 6.60086652238000E-06 6.76916034795000E-06 
6.94171455199000E-06 7.11863698651000E-06 7.30003823378000E-06 7.48603167548000E-06 
7.67673356359000E-06 7.87226309297000E-06 8.07274247595000E-06 8.27829701868000E-06 
8.48905519943000E-06 8.70514874893000E-06 8.92671273268000E-06 9.15388563538000E-06 
9.38680944750000E-06 9.62562975399000E-06 9.87049582532000E-06 1.01215607108000E-05 
1.03789813340000E-05 1.06429185914000E-05 1.09135374523000E-05 1.11910070622000E-05 
1.14755008488000E-05 1.17671966298000E-05 1.20662767247000E-05 1.23729280683000E-05 
1.26873423276000E-05 1.30097160217000E-05 1.33402506448000E-05 1.36791527916000E-05 
1.40266342872000E-05 1.43829123187000E-05 1.47482095716000E-05 1.51227543684000E-05 
1.55067808119000E-05 1.59005289311000E-05 1.63042448313000E-05 1.67181808483000E-05 
1.71425957054000E-05 1.75777546758000E-05 1.80239297479000E-05 1.84813997958000E-05 
1.89504507531000E-05 1.94313757919000E-05 1.99244755060000E-05 2.04300580988000E-05 
2.09484395759000E-05 2.14799439425000E-05 2.20249034063000E-05 2.25836585845000E-05 
2.31565587175000E-05 2.37439618863000E-05 2.43462352372000E-05 2.49637552105000E-05 
2.55969077764000E-05 2.62460886758000E-05 2.69117036679000E-05 2.75941687838000E-05 
2.82939105863000E-05 2.90113664369000E-05 2.97469847688000E-05 3.05012253674000E-05 
3.12745596577000E-05 3.20674709988000E-05 3.28804549860000E-05 3.37140197609000E-05 
3.45686863285000E-05 3.54449888832000E-05 3.63434751428000E-05 3.72647066903000E-05 
3.82092593255000E-05 3.91777234244000E-05 4.01707043088000E-05 4.11888226239000E-05 
4.22327147268000E-05 4.33030330842000E-05 4.44004466798000E-05 4.55256414328000E-05 
4.66793206266000E-05 4.78622053483000E-05 4.90750349392000E-05 5.03185674574000E-05 
5.15935801512000E-05 5.29008699450000E-05 5.42412539375000E-05 5.56155699123000E-05 
5.70246768617000E-05 5.84694555233000E-05 5.99508089309000E-05 6.14696629785000E-05 
6.30269669994000E-05 6.46236943592000E-05 6.62608430646000E-05 6.79394363869000E-05 
6.96605235013000E-05 7.14251801436000E-05 7.32345092814000E-05 7.50896418043000E-05 
7.69917372307000E-05 7.89419844321000E-05 8.09416023764000E-05 8.29918408900000E-05 
8.50939814387000E-05 8.72493379287000E-05 8.94592575280000E-05 9.17251215084000E-05 
9.40483461085000E-05 9.64303834193000E-05 9.88727222918000E-05 1.01376889267000E-04 
1.03944449531000E-04 1.06577007893000E-04 1.09276209787000E-04 1.12043742302000E-04 
1.14881335237000E-04 1.17790762178000E-04 1.20773841613000E-04 1.23832438064000E-04 
1.26968463252000E-04 1.30183877296000E-04 1.33480689934000E-04 1.36860961782000E-04 
1.40326805618000E-04 1.43880387709000E-04 1.47523929159000E-04 1.51259707300000E-04 
1.55090057115000E-04 1.59017372697000E-04 1.63044108746000E-04 1.67172782104000E-04 
1.71405973325000E-04 1.75746328293000E-04 1.80196559869000E-04 1.84759449594000E-04 
1.89437849423000E-04 1.94234683507000E-04 1.99152950024000E-04 2.04195723050000E-04 
2.09366154484000E-04 2.14667476012000E-04 2.20103001134000E-04 2.25676127230000E-04 
2.31390337684000E-04 2.37249204065000E-04 2.43256388354000E-04 2.49415645237000E-04 
2.55730824451000E-04 2.62205873188000E-04 2.68844838564000E-04 2.75651870149000E-04 
2.82631222558000E-04 2.89787258115000E-04 2.97124449575000E-04 3.04647382921000E-04 
3.12360760231000E-04 3.20269402617000E-04 3.28378253238000E-04 3.36692380391000E-04 
3.45216980674000E-04 3.53957382241000E-04 3.62919048127000E-04 3.72107579665000E-04 
3.81528719986000E-04 3.91188357610000E-04 4.01092530125000E-04 4.11247427960000E-04 
4.21659398258000E-04 4.32334948839000E-04 4.43280752270000E-04 4.54503650034000E-04 
4.66010656807000E-04 4.77808964844000E-04 4.89905948471000E-04 5.02309168696000E-04 
5.15026377936000E-04 5.28065524861000E-04 5.41434759361000E-04 5.55142437645000E-04 
5.69197127456000E-04 5.83607613434000E-04 5.98382902601000E-04 6.13532229994000E-04 
6.29065064436000E-04 6.44991114454000E-04 6.61320334347000E-04 6.78062930410000E-04 
6.95229367311000E-04 7.12830374630000E-04 7.30876953572000E-04 7.49380383834000E-04 
7.68352230663000E-04 7.87804352082000E-04 8.07748906298000E-04 8.28198359309000E-04 
8.49165492687000E-04 8.70663411573000E-04 8.92705552867000E-04 9.15305693625000E-04 
9.38477959670000E-04 9.62236834422000E-04 9.86597167953000E-04 1.01157418626000E-03 
1.03718350080000E-03 1.06344111822000E-03 1.09036345040000E-03 1.11796732465000E-03 
1.14626999431000E-03 1.17528914947000E-03 1.20504292803000E-03 1.23554992708000E-03 
1.26682921450000E-03 1.29890034084000E-03 1.33178335161000E-03 1.36549879976000E-03 
1.40006775855000E-03 1.43551183469000E-03 1.47185318190000E-03 1.50911451468000E-03 
1.54731912260000E-03 1.58649088478000E-03 1.62665428483000E-03 1.66783442619000E-03 
1.71005704780000E-03 1.75334854016000E-03 1.79773596187000E-03 1.84324705651000E-03 
1.88991027000000E-03 1.93775476836000E-03 1.98681045596000E-03 2.03710799421000E-03 
2.08867882070000E-03 2.14155516887000E-03 2.19577008818000E-03 2.25135746470000E-03 
2.30835204235000E-03 2.36678944461000E-03 2.42670619675000E-03 2.48813974869000E-03 
2.55112849841000E-03 2.61571181591000E-03 2.68193006788000E-03 2.74982464288000E-03 
2.81943797723000E-03 2.89081358153000E-03 2.96399606786000E-03 3.03903117764000E-03 
3.11596581028000E-03 3.19484805241000E-03 3.27572720800000E-03 3.35865382917000E-03 
3.44367974775000E-03 3.53085810771000E-03 3.62024339835000E-03 3.71189148841000E-03 
3.80585966090000E-03 3.90220664901000E-03 4.00099267274000E-03 4.10227947656000E-03 
4.20613036803000E-03 4.31261025733000E-03 4.42178569786000E-03 4.53372492783000E-03 
4.64849791290000E-03 4.76617638991000E-03 4.88683391176000E-03 5.01054589331000E-03 
5.13738965859000E-03 5.26744448907000E-03 5.40079167326000E-03 5.53751455749000E-03 
5.67769859801000E-03 5.82143141442000E-03 5.96880284439000E-03 6.11990499988000E-03 
6.27483232464000E-03 6.43368165330000E-03 6.59655227187000E-03 6.76354597977000E-03 
6.93476715351000E-03 7.11032281191000E-03 7.29032268295000E-03 7.47487927243000E-03 
7.66410793421000E-03 7.85812694237000E-03 8.05705756511000E-03 8.26102414053000E-03 
8.47015415440000E-03 8.68457831977000E-03 8.90443065874000E-03 9.12984858616000E-03 
9.36097299558000E-03 9.59794834728000E-03 9.84092275858000E-03 1.00900480964000E-02 
1.03454800721000E-02 1.06073783391000E-02 1.08759065923000E-02 1.11512326706000E-02 
1.14335286618000E-02 1.17229710099000E-02 1.20197406261000E-02 1.23240230008000E-02 
1.26360083205000E-02 1.29558915862000E-02 1.32838727353000E-02 1.36201567667000E-02 
1.39649538689000E-02 1.43184795513000E-02 1.46809547789000E-02 1.50526061107000E-02 
1.54336658407000E-02 1.58243721437000E-02 1.62249692238000E-02 1.66357074673000E-02 
1.70568435989000E-02 1.74886408425000E-02 1.79313690853000E-02 1.83853050470000E-02 
1.88507324522000E-02 1.93279422083000E-02 1.98172325869000E-02 2.03189094104000E-02 
2.08332862431000E-02 2.13606845874000E-02 2.19014340843000E-02 2.24558727199000E-02 
2.30243470364000E-02 2.36072123487000E-02 2.42048329666000E-02 2.48175824226000E-02 
2.54458437048000E-02 2.60900094971000E-02 2.67504824241000E-02 2.74276753029000E-02 
2.81220114010000E-02 2.88339247011000E-02 2.95638601722000E-02 3.03122740477000E-02 
3.10796341107000E-02 3.18664199861000E-02 3.26731234408000E-02 3.35002486908000E-02 
3.43483127161000E-02 3.52178455844000E-02 3.61093907820000E-02 3.70235055538000E-02 
3.79607612513000E-02 3.89217436896000E-02 3.99070535143000E-02 4.09173065758000E-02 
4.19531343154000E-02 4.30151841591000E-02 4.41041199226000E-02 4.52206222261000E-02 
4.63653889201000E-02 4.75391355208000E-02 4.87425956583000E-02 4.99765215341000E-02 
5.12416843922000E-02 5.25388750006000E-02 5.38689041456000E-02 5.52326031386000E-02 
5.66308243360000E-02 5.80644416716000E-02 5.95343512028000E-02 6.10414716709000E-02 
6.25867450754000E-02 6.41711372623000E-02 6.57956385283000E-02 6.74612642398000E-02 
6.91690554668000E-02 7.09200796346000E-02 7.27154311903000E-02 7.45562322869000E-02 
7.64436334852000E-02 7.83788144723000E-02 8.03629847993000E-02 8.23973846373000E-02 
8.44832855524000E-02 8.66219913006000E-02 8.88148386425000E-02 9.10631981792000E-02 
9.33684752085000E-02 9.57321106037000E-02 9.81555817138000E-02 1.00640403287000E-01 
1.03188128418000E-01 1.05800349518000E-01 1.08478699309000E-01 1.11224851849000E-01 
1.14040523571000E-01 1.16927474362000E-01 1.19887508660000E-01 1.22922476583000E-01 
1.26034275085000E-01 1.29224849141000E-01 1.32496192964000E-01 1.35850351250000E-01 
1.39289420457000E-01 1.42815550116000E-01 1.46430944172000E-01 1.50137862364000E-01 
1.53938621638000E-01 1.57835597590000E-01 1.61831225958000E-01 1.65928004140000E-01 
1.70128492755000E-01 1.74435317246000E-01 1.78851169518000E-01 1.83378809622000E-01 
1.88021067481000E-01 1.92780844658000E-01 1.97661116167000E-01 2.02664932338000E-01 
2.07795420718000E-01 2.13055788030000E-01 2.18449322175000E-01 2.23979394286000E-01 
2.29649460840000E-01 2.35463065811000E-01 2.41423842894000E-01 2.47535517766000E-01 
2.53801910424000E-01 2.60226937568000E-01 2.66814615049000E-01 2.73569060378000E-01 
2.80494495306000E-01 2.87595248453000E-01 2.94875758022000E-01 3.02340574568000E-01 
3.09994363845000E-01 3.17841909719000E-01 3.25888117164000E-01 3.34138015319000E-01 
3.42596760641000E-01 3.51269640120000E-01 3.60162074588000E-01 3.69279622107000E-01 
3.78627981440000E-01 3.88212995616000E-01 3.98040655581000E-01 4.08117103943000E-01 
4.18448638810000E-01 4.29041717726000E-01 4.39902961713000E-01 4.51039159400000E-01 
4.62457271273000E-01 4.74164434025000E-01 4.86167965013000E-01 4.98475366834000E-01 
5.11094332016000E-01 5.24032747823000E-01 5.37298701185000E-01 5.50900483755000E-01 
5.64846597090000E-01 5.79145757965000E-01 5.93806903822000E-01 6.08839198352000E-01 
6.24252037231000E-01 6.40055053983000E-01 6.56258126009000E-01 6.72871380756000E-01 
6.89905202049000E-01 7.07370236582000E-01 7.25277400568000E-01 7.43637886569000E-01 
7.62463170486000E-01 7.81765018735000E-01 8.01555495598000E-01 8.21846970768000E-01 
8.42652127078000E-01 8.63983968427000E-01 8.85855827911000E-01 9.08281376154000E-01 
9.31274629854000E-01 9.54849960542000E-01 9.79022103568000E-01 1.00380616731000E+00 
1.02921764261000E+00 1.05527241247000E+00 1.08198676197000E+00 1.10937738845000E+00 
1.13746141193000E+00 1.16625638586000E+00 1.19578030802000E+00 1.22605163183000E+00 
1.25708927785000E+00 1.28891264563000E+00 1.32154162579000E+00 1.35499661251000E+00 
1.38929851626000E+00 1.42446877684000E+00 1.46052937680000E+00 1.49750285519000E+00 
1.53541232165000E+00 1.57428147082000E+00 1.61413459719000E+00 1.65499661025000E+00 
1.69689305010000E+00 1.73985010337000E+00 1.78389461962000E+00 1.82905412811000E+00 
1.87535685500000E+00 1.92283174101000E+00 1.97150845947000E+00 2.02141743493000E+00 
2.07258986212000E+00 2.12505772547000E+00 2.17885381910000E+00 2.23401176733000E+00 
2.29056604566000E+00 2.34855200237000E+00 2.40800588056000E+00 2.46896484084000E+00 
2.53146698455000E+00 2.59555137756000E+00 2.66125807470000E+00 2.72862814480000E+00 
2.79770369635000E+00 2.86852790380000E+00 2.94114503461000E+00 3.01560047683000E+00 
3.09194076755000E+00 3.17021362192000E+00 3.25046796304000E+00 3.33275395248000E+00 
3.41712302166000E+00 3.50362790399000E+00 3.59232266784000E+00 3.68326275034000E+00 
3.77650499198000E+00 3.87210767220000E+00 3.97013054580000E+00 4.07063488025000E+00 
4.17368349405000E+00 4.27934079593000E+00 4.38767282513000E+00 4.49874729271000E+00 
4.61263362383000E+00 4.72940300114000E+00 4.84912840932000E+00 4.97188468063000E+00 
5.09774854175000E+00 5.22679866168000E+00 5.35911570095000E+00 5.49478236201000E+00 
5.63388344095000E+00 5.77650588048000E+00 5.92273882424000E+00 6.07267367260000E+00 
6.22640413972000E+00 6.38402631215000E+00 6.54563870886000E+00 6.71134234288000E+00 
6.88124078436000E+00 7.05544022537000E+00 7.23404954622000E+00 7.41718038355000E+00 
7.60494720010000E+00 7.79746735625000E+00 7.99486118335000E+00 8.19725205897000E+00 
8.40476648401000E+00 8.61753416172000E+00 8.83568807884000E+00 9.05936458867000E+00 
9.28870349630000E+00 9.52384814601000E+00 9.76494551088000E+00 1.00121462846000E+01 
1.02656049757000E+01 1.05254800041000E+01 1.07919338002000E+01 1.10651329062000E+01 
1.13452480805000E+01 1.16324544043000E+01 1.19269313907000E+01 1.22288630975000E+01 
1.25384382419000E+01 1.28558503184000E+01 1.31812977198000E+01 1.35149838615000E+01 
1.38571173080000E+01 1.42079119040000E+01 1.45675869074000E+01 1.49363671269000E+01 
1.53144830621000E+01 1.57021710478000E+01 1.60996734016000E+01 1.65072385753000E+01 
1.69251213106000E+01 1.73535827976000E+01 1.77928908389000E+01 1.82433200161000E+01 
1.87051518623000E+01 1.91786750373000E+01 1.96641855086000E+01 2.01619867359000E+01 
2.06723898613000E+01 2.11957139034000E+01 2.17322859567000E+01 2.22824413961000E+01 
2.28465240868000E+01 2.34248865989000E+01 2.40178904276000E+01 2.46259062197000E+01 
2.52493140048000E+01 2.58885034332000E+01 2.65438740190000E+01 2.72158353902000E+01 
2.79048075445000E+01 2.86112211119000E+01 2.93355176238000E+01 3.00781497893000E+01 
3.08395817776000E+01 3.16202895084000E+01 3.24207609495000E+01 3.32414964216000E+01 
3.40830089112000E+01 3.49458243908000E+01 3.58304821482000E+01 3.67375351235000E+01 
3.76675502541000E+01 3.86211088298000E+01 3.95988068558000E+01 4.06012554252000E+01 
4.16290811009000E+01 4.26829263075000E+01 4.37634497325000E+01 4.48713267382000E+01 
4.60072497839000E+01 4.71719288584000E+01 4.83660919240000E+01 4.95904853715000E+01 
5.08458744868000E+01 5.21330439287000E+01 5.34527982203000E+01 5.48059622508000E+01 
5.61933817918000E+01 5.76159240258000E+01 5.90744780878000E+01 6.05699556217000E+01 
6.21032913496000E+01 6.36754436563000E+01 6.52873951881000E+01 6.69401534672000E+01 
6.86347515213000E+01 7.03722485294000E+01 7.21537304837000E+01 7.39803108684000E+01 
7.58531313557000E+01 7.77733625193000E+01 7.97422045662000E+01 8.17608880869000E+01 
8.38306748242000E+01 8.59528584622000E+01 8.81287654348000E+01 9.03597557546000E+01 
9.26472238633000E+01 9.49925995029000E+01 9.73973486094000E+01 9.98629742294000E+01 
1.02391017459000E+02 1.04983058408000E+02 1.07640717186000E+02 1.10365654916000E+02 
1.13159574773000E+02 1.16024223048000E+02 1.18961390239000E+02 1.21972912172000E+02 
1.25060671146000E+02 1.28226597110000E+02 1.31472668871000E+02 1.34800915331000E+02 
1.38213416750000E+02 1.41712306055000E+02 1.45299770163000E+02 1.48978051358000E+02 
1.52749448685000E+02 1.56616319390000E+02 1.60581080393000E+02 1.64646209798000E+02 
1.68814248444000E+02 1.73087801491000E+02 1.77469540048000E+02 1.81962202845000E+02 
1.86568597942000E+02 1.91291604486000E+02 1.96134174510000E+02 2.01099334778000E+02 
2.06190188677000E+02 
</PP_R>
    <PP_RAB>
1.17725489947000E-09 1.20705724914000E-09 1.23761404888000E-09 1.26894439769000E-09 
1.30106787806000E-09 1.33400456820000E-09 1.36777505462000E-09 1.40240044498000E-09 
1.43790238127000E-09 1.47430305335000E-09 1.51162521284000E-09 1.54989218729000E-09 
1.58912789481000E-09 1.62935685900000E-09 1.67060422426000E-09 1.71289577155000E-09 
1.75625793445000E-09 1.80071781573000E-09 1.84630320427000E-09 1.89304259241000E-09 
1.94096519379000E-09 1.99010096161000E-09 2.04048060730000E-09 2.09213561981000E-09 
2.14509828517000E-09 2.19940170680000E-09 2.25507982609000E-09 2.31216744368000E-09 
2.37070024119000E-09 2.43071480352000E-09 2.49224864173000E-09 2.55534021648000E-09 
2.62002896204000E-09 2.68635531099000E-09 2.75436071946000E-09 2.82408769304000E-09 
2.89557981336000E-09 2.96888176532000E-09 3.04403936503000E-09 3.12109958844000E-09 
3.20011060069000E-09 3.28112178624000E-09 3.36418377971000E-09 3.44934849756000E-09 
3.53666917051000E-09 3.62620037682000E-09 3.71799807640000E-09 3.81211964582000E-09 
3.90862391410000E-09 4.00757119957000E-09 4.10902334750000E-09 4.21304376878000E-09 
4.31969747956000E-09 4.42905114189000E-09 4.54117310535000E-09 4.65613344984000E-09 
4.77400402930000E-09 4.89485851668000E-09 5.01877244998000E-09 5.14582327944000E-09 
5.27609041595000E-09 5.40965528073000E-09 5.54660135616000E-09 5.68701423799000E-09 
5.83098168885000E-09 5.97859369308000E-09 6.12994251299000E-09 6.28512274651000E-09 
6.44423138635000E-09 6.60736788058000E-09 6.77463419483000E-09 6.94613487598000E-09 
7.12197711754000E-09 7.30227082664000E-09 7.48712869272000E-09 7.67666625796000E-09 
7.87100198951000E-09 8.07025735352000E-09 8.27455689109000E-09 8.48402829607000E-09 
8.69880249492000E-09 8.91901372850000E-09 9.14479963599000E-09 9.37630134095000E-09 
9.61366353947000E-09 9.85703459065000E-09 1.01065666093000E-08 1.03624155611000E-08 
1.06247413600000E-08 1.08937079681000E-08 1.11694834982000E-08 1.14522403192000E-08 
1.17421551631000E-08 1.20394092363000E-08 1.23441883322000E-08 1.26566829476000E-08 
1.29770884018000E-08 1.33056049588000E-08 1.36424379520000E-08 1.39877979130000E-08 
1.43419007030000E-08 1.47049676478000E-08 1.50772256762000E-08 1.54589074613000E-08 
1.58502515669000E-08 1.62515025956000E-08 1.66629113425000E-08 1.70847349515000E-08 
1.75172370759000E-08 1.79606880437000E-08 1.84153650263000E-08 1.88815522114000E-08 
1.93595409813000E-08 1.98496300946000E-08 2.03521258728000E-08 2.08673423922000E-08 
2.13956016798000E-08 2.19372339151000E-08 2.24925776356000E-08 2.30619799493000E-08 
2.36457967513000E-08 2.42443929459000E-08 2.48581426754000E-08 2.54874295533000E-08 
2.61326469043000E-08 2.67941980103000E-08 2.74724963622000E-08 2.81679659188000E-08 
2.88810413709000E-08 2.96121684141000E-08 3.03618040265000E-08 3.11304167548000E-08 
3.19184870069000E-08 3.27265073524000E-08 3.35549828304000E-08 3.44044312649000E-08 
3.52753835890000E-08 3.61683841761000E-08 3.70839911807000E-08 3.80227768869000E-08 
3.89853280665000E-08 3.99722463452000E-08 4.09841485791000E-08 4.20216672399000E-08 
4.30854508107000E-08 4.41761641909000E-08 4.52944891117000E-08 4.64411245626000E-08 
4.76167872282000E-08 4.88222119359000E-08 5.00581521153000E-08 5.13253802693000E-08 
5.26246884568000E-08 5.39568887877000E-08 5.53228139304000E-08 5.67233176328000E-08 
5.81592752553000E-08 5.96315843180000E-08 6.11411650620000E-08 6.26889610246000E-08 
6.42759396285000E-08 6.59030927870000E-08 6.75714375238000E-08 6.92820166088000E-08 
7.10358992094000E-08 7.28341815594000E-08 7.46779876439000E-08 7.65684699016000E-08 
7.85068099456000E-08 8.04942193013000E-08 8.25319401645000E-08 8.46212461768000E-08 
8.67634432227000E-08 8.89598702450000E-08 9.12119000821000E-08 9.35209403260000E-08 
9.58884342019000E-08 9.83158614706000E-08 1.00804739353000E-07 1.03356623479000E-07 
1.05973108860000E-07 1.08655830883000E-07 1.11406466337000E-07 1.14226734460000E-07 
1.17118398010000E-07 1.20083264371000E-07 1.23123186682000E-07 1.26240064992000E-07 
1.29435847452000E-07 1.32712531530000E-07 1.36072165261000E-07 1.39516848525000E-07 
1.43048734360000E-07 1.46670030312000E-07 1.50382999806000E-07 1.54189963571000E-07 
1.58093301083000E-07 1.62095452054000E-07 1.66198917959000E-07 1.70406263598000E-07 
1.74720118699000E-07 1.79143179562000E-07 1.83678210744000E-07 1.88328046787000E-07 
1.93095593989000E-07 1.97983832224000E-07 2.02995816798000E-07 2.08134680367000E-07 
2.13403634885000E-07 2.18805973623000E-07 2.24345073217000E-07 2.30024395784000E-07 
2.35847491087000E-07 2.41817998749000E-07 2.47939650532000E-07 2.54216272668000E-07 
2.60651788250000E-07 2.67250219685000E-07 2.74015691206000E-07 2.80952431455000E-07 
2.88064776119000E-07 2.95357170645000E-07 3.02834173018000E-07 3.10500456606000E-07 
3.18360813088000E-07 3.26420155442000E-07 3.34683521019000E-07 3.43156074691000E-07 
3.51843112080000E-07 3.60750062868000E-07 3.69882494189000E-07 3.79246114109000E-07 
3.88846775196000E-07 3.98690478176000E-07 4.08783375683000E-07 4.19131776107000E-07 
4.29742147534000E-07 4.40621121794000E-07 4.51775498597000E-07 4.63212249794000E-07 
4.74938523726000E-07 4.86961649696000E-07 4.99289142549000E-07 5.11928707369000E-07 
5.24888244296000E-07 5.38175853462000E-07 5.51799840056000E-07 5.65768719512000E-07 
5.80091222836000E-07 5.94776302057000E-07 6.09833135829000E-07 6.25271135162000E-07 
6.41099949309000E-07 6.57329471794000E-07 6.73969846597000E-07 6.91031474493000E-07 
7.08525019556000E-07 7.26461415821000E-07 7.44851874119000E-07 7.63707889085000E-07 
7.83041246342000E-07 8.02864029869000E-07 8.23188629550000E-07 8.44027748922000E-07 
8.65394413111000E-07 8.87301976981000E-07 9.09764133469000E-07 9.32794922157000E-07 
9.56408738036000E-07 9.80620340510000E-07 1.00544486262000E-06 1.03089782050000E-06 
1.05699512307000E-06 1.08375308200000E-06 1.11118842189000E-06 1.13931829072000E-06 
1.16816027057000E-06 1.19773238861000E-06 1.22805312838000E-06 1.25914144134000E-06 
1.29101675868000E-06 1.32369900353000E-06 1.35720860334000E-06 1.39156650271000E-06 
1.42679417644000E-06 1.46291364298000E-06 1.49994747817000E-06 1.53791882936000E-06 
1.57685142988000E-06 1.61676961388000E-06 1.65769833152000E-06 1.69966316457000E-06 
1.74269034243000E-06 1.78680675849000E-06 1.83203998693000E-06 1.87841830001000E-06 
1.92597068567000E-06 1.97472686570000E-06 2.02471731431000E-06 2.07597327715000E-06 
2.12852679087000E-06 2.18241070312000E-06 2.23765869310000E-06 2.29430529261000E-06 
2.35238590761000E-06 2.41193684038000E-06 2.47299531219000E-06 2.53559948658000E-06 
2.59978849318000E-06 2.66560245223000E-06 2.73308249957000E-06 2.80227081245000E-06 
2.87321063581000E-06 2.94594630935000E-06 3.02052329523000E-06 3.09698820650000E-06 
3.17538883621000E-06 3.25577418731000E-06 3.33819450326000E-06 3.42270129944000E-06 
3.50934739536000E-06 3.59818694763000E-06 3.68927548388000E-06 3.78266993740000E-06 
3.87842868277000E-06 3.97661157232000E-06 4.07727997356000E-06 4.18049680750000E-06 
4.28632658803000E-06 4.39483546221000E-06 4.50609125163000E-06 4.62016349475000E-06 
4.73712349047000E-06 4.85704434257000E-06 4.98000100549000E-06 5.10607033116000E-06 
5.23533111700000E-06 5.36786415521000E-06 5.50375228326000E-06 5.64308043564000E-06 
5.78593569700000E-06 5.93240735652000E-06 6.08258696375000E-06 6.23656838584000E-06 
6.39444786618000E-06 6.55632408460000E-06 6.72229821900000E-06 6.89247400862000E-06 
7.06695781885000E-06 7.24585870778000E-06 7.42928849427000E-06 7.61736182791000E-06 
7.81019626067000E-06 8.00791232032000E-06 8.21063358586000E-06 8.41848676467000E-06 
8.63160177175000E-06 8.85011181092000E-06 9.07415345807000E-06 9.30386674652000E-06 
9.53939525455000E-06 9.78088619515000E-06 1.00284905080000E-05 1.02823629539000E-05 
1.05426622114000E-05 1.08095509759000E-05 1.10831960617000E-05 1.13637685058000E-05 
1.16514436751000E-05 1.19464013760000E-05 1.22488259667000E-05 1.25589064723000E-05 
1.28768367033000E-05 1.32028153764000E-05 1.35370462389000E-05 1.38797381960000E-05 
1.42311054413000E-05 1.45913675907000E-05 1.49607498199000E-05 1.53394830047000E-05 
1.57278038658000E-05 1.61259551162000E-05 1.65341856136000E-05 1.69527505152000E-05 
1.73819114377000E-05 1.78219366207000E-05 1.82731010942000E-05 1.87356868507000E-05 
1.92099830215000E-05 1.96962860569000E-05 2.01948999124000E-05 2.07061362376000E-05 
2.12303145721000E-05 2.17677625442000E-05 2.23188160766000E-05 2.28838195955000E-05 
2.34631262466000E-05 2.40570981155000E-05 2.46661064537000E-05 2.52905319115000E-05 
2.59307647749000E-05 2.65872052105000E-05 2.72602635148000E-05 2.79503603712000E-05 
2.86579271127000E-05 2.93834059916000E-05 3.01272504556000E-05 3.08899254320000E-05 
3.16719076173000E-05 3.24736857759000E-05 3.32957610452000E-05 3.41386472490000E-05 
3.50028712186000E-05 3.58889731222000E-05 3.67975068023000E-05 3.77290401220000E-05 
3.86841553200000E-05 3.96634493743000E-05 4.06675343756000E-05 4.16970379098000E-05 
4.27526034499000E-05 4.38348907590000E-05 4.49445763018000E-05 4.60823536678000E-05 
4.72489340049000E-05 4.84450464639000E-05 4.96714386539000E-05 5.09288771101000E-05 
5.22181477723000E-05 5.35400564767000E-05 5.48954294593000E-05 5.62851138723000E-05 
5.77099783137000E-05 5.91709133702000E-05 6.06688321737000E-05 6.22046709722000E-05 
6.37793897151000E-05 6.53939726527000E-05 6.70494289520000E-05 6.87467933270000E-05 
7.04871266857000E-05 7.22715167932000E-05 7.41010789513000E-05 7.59769566960000E-05 
7.79003225118000E-05 7.98723785651000E-05 8.18943574550000E-05 8.39675229843000E-05 
8.60931709487000E-05 8.82726299476000E-05 9.05072622138000E-05 9.27984644651000E-05 
9.51476687775000E-05 9.75563434802000E-05 1.00025994073000E-04 1.02558164169000E-04 
1.05154436456000E-04 1.07816433688000E-04 1.10545819701000E-04 1.13344300451000E-04 
1.16213625077000E-04 1.19155587003000E-04 1.22172025049000E-04 1.25264824588000E-04 