<UPF version="2.0.1">
  <PP_INFO>
Generated using Vanderbilt code, version   7  3  6
Author: kfg        Generation date:   13    5 2013
Automatically converted from original USPP format to UPF.v1.

Futher converted to UPF.v2 format.
Convert Q_IJ to Q_IJL use the same routine as 'upflib/upf_to_internal.f90' of QE.
The conversion is done by using PseudoPotentialIO.jl package.
Converted by: JYU on 2024-04-30

1        The Pseudo was generated with a Scalar-Relativistic Calculation
2.30000000000E+00    Local Potential cutoff radius
nl pn  l   occ               Rcut            Rcut US             E pseu
5S  5  0  2.00      0.00000000000      2.00000000000     -1.96466343500
5P  5  1  6.00      0.00000000000      2.00000000000     -0.99359768300
5D  5  2  0.00      0.00000000000      2.20000000000     -0.02821609200
6S  6  0  1.00      0.00000000000      2.00000000000     -0.15333497100
6P  6  1  0.00      0.00000000000      2.00000000000     -0.05427914400
</PP_INFO>
  <PP_HEADER element="Cs" pseudo_type="US" relativistic="scalar" is_ultrasoft="T" is_paw="F" is_coulomb="F" has_so="F" has_wfc="F" has_gipaw="F" core_correction="T" functional="PBE" z_valence="9.0" total_psenergy="-63.0038441763" wfc_cutoff="0.0" rho_cutoff="0.0" l_max="2" mesh_size="905" number_of_wfc="5" number_of_proj="6"/>
  <PP_MESH>
    <PP_R>
0.00000000000000E+00 7.70378346908000E-07 1.55392523651000E-06 2.35086576665000E-06 
3.16142888294000E-06 3.98584744447000E-06 4.82435829074000E-06 5.67720230969000E-06 
6.54462450690000E-06 7.42687407599000E-06 8.32420447018000E-06 9.23687347513000E-06 
1.01651432830000E-05 1.11092805677000E-05 1.20695565617000E-05 1.30462471336000E-05 
1.40396328677000E-05 1.50499991446000E-05 1.60776362229000E-05 1.71228393228000E-05 
1.81859087111000E-05 1.92671497869000E-05 2.03668731700000E-05 2.14853947894000E-05 
2.26230359749000E-05 2.37801235488000E-05 2.49569899199000E-05 2.61539731792000E-05 
2.73714171968000E-05 2.86096717207000E-05 2.98690924777000E-05 3.11500412748000E-05 
3.24528861039000E-05 3.37780012470000E-05 3.51257673842000E-05 3.64965717026000E-05 
3.78908080076000E-05 3.93088768365000E-05 4.07511855729000E-05 4.22181485643000E-05 
4.37101872407000E-05 4.52277302359000E-05 4.67712135108000E-05 4.83410804781000E-05 
4.99377821303000E-05 5.15617771689000E-05 5.32135321362000E-05 5.48935215495000E-05 
5.66022280371000E-05 5.83401424775000E-05 6.01077641398000E-05 6.19056008274000E-05 
6.37341690242000E-05 6.55939940423000E-05 6.74856101735000E-05 6.94095608425000E-05 
7.13663987631000E-05 7.33566860969000E-05 7.53809946151000E-05 7.74399058622000E-05 
7.95340113236000E-05 8.16639125953000E-05 8.38302215568000E-05 8.60335605466000E-05 
8.82745625415000E-05 9.05538713379000E-05 9.28721417371000E-05 9.52300397334000E-05 
9.76282427052000E-05 1.00067439610000E-04 1.02548331181000E-04 1.05071630132000E-04 
1.07638061357000E-04 1.10248362141000E-04 1.12903282375000E-04 1.15603584765000E-04 
1.18350045055000E-04 1.21143452251000E-04 1.23984608845000E-04 1.26874331046000E-04 
1.29813449014000E-04 1.32802807103000E-04 1.35843264096000E-04 1.38935693457000E-04 
1.42080983583000E-04 1.45280038055000E-04 1.48533775897000E-04 1.51843131847000E-04 
1.55209056619000E-04 1.58632517177000E-04 1.62114497015000E-04 1.65655996439000E-04 
1.69258032854000E-04 1.72921641053000E-04 1.76647873522000E-04 1.80437800735000E-04 
1.84292511464000E-04 1.88213113093000E-04 1.92200731936000E-04 1.96256513557000E-04 
2.00381623105000E-04 2.04577245644000E-04 2.08844586494000E-04 2.13184871581000E-04 
2.17599347784000E-04 2.22089283296000E-04 2.26655967990000E-04 2.31300713786000E-04 
2.36024855028000E-04 2.40829748873000E-04 2.45716775671000E-04 2.50687339373000E-04 
2.55742867923000E-04 2.60884813679000E-04 2.66114653822000E-04 2.71433890782000E-04 
2.76844052675000E-04 2.82346693735000E-04 2.87943394765000E-04 2.93635763588000E-04 
2.99425435511000E-04 3.05314073796000E-04 3.11303370134000E-04 3.17395045134000E-04 
3.23590848816000E-04 3.29892561116000E-04 3.36301992393000E-04 3.42820983952000E-04 
3.49451408574000E-04 3.56195171051000E-04 3.63054208737000E-04 3.70030492098000E-04 
3.77126025288000E-04 3.84342846715000E-04 3.91683029633000E-04 3.99148682733000E-04 
4.06741950754000E-04 4.14465015094000E-04 4.22320094441000E-04 4.30309445407000E-04 
4.38435363177000E-04 4.46700182172000E-04 4.55106276712000E-04 4.63656061707000E-04 
4.72351993344000E-04 4.81196569796000E-04 4.90192331939000E-04 4.99341864081000E-04 
5.08647794707000E-04 5.18112797228000E-04 5.27739590759000E-04 5.37530940889000E-04 
5.47489660485000E-04 5.57618610494000E-04 5.67920700767000E-04 5.78398890896000E-04 
5.89056191061000E-04 5.99895662899000E-04 6.10920420381000E-04 6.22133630705000E-04 
6.33538515211000E-04 6.45138350301000E-04 6.56936468382000E-04 6.68936258827000E-04 
6.81141168942000E-04 6.93554704962000E-04 7.06180433056000E-04 7.19021980351000E-04 
7.32083035975000E-04 7.45367352117000E-04 7.58878745103000E-04 7.72621096496000E-04 
7.86598354207000E-04 8.00814533632000E-04 8.15273718804000E-04 8.29980063567000E-04 
8.44937792769000E-04 8.60151203476000E-04 8.75624666208000E-04 8.91362626190000E-04 
9.07369604634000E-04 9.23650200035000E-04 9.40209089492000E-04 9.57051030056000E-04 
9.74180860088000E-04 9.91603500658000E-04 1.00932395695000E-03 1.02734731972000E-03 
1.04567876672000E-03 1.06432356422000E-03 1.08328706851000E-03 1.10257472744000E-03 
1.12219208199000E-03 1.14214476783000E-03 1.16243851699000E-03 1.18307915947000E-03 
1.20407262493000E-03 1.22542494438000E-03 1.24714225193000E-03 1.26923078654000E-03 
1.29169689383000E-03 1.31454702787000E-03 1.33778775305000E-03 1.36142574600000E-03 
1.38546779746000E-03 1.40992081422000E-03 1.43479182118000E-03 1.46008796330000E-03 
1.48581650766000E-03 1.51198484558000E-03 1.53860049471000E-03 1.56567110123000E-03 
1.59320444198000E-03 1.62120842676000E-03 1.64969110058000E-03 1.67866064596000E-03 
1.70812538529000E-03 1.73809378322000E-03 1.76857444908000E-03 1.79957613939000E-03 
1.83110776033000E-03 1.86317837032000E-03 1.89579718263000E-03 1.92897356801000E-03 
1.96271705740000E-03 1.99703734465000E-03 2.03194428931000E-03 2.06744791948000E-03 
2.10355843465000E-03 2.14028620868000E-03 2.17764179275000E-03 2.21563591840000E-03 
2.25427950060000E-03 2.29358364091000E-03 2.33355963064000E-03 2.37421895412000E-03 
2.41557329200000E-03 2.45763452457000E-03 2.50041473520000E-03 2.54392621383000E-03 
2.58818146047000E-03 2.63319318878000E-03 2.67897432977000E-03 2.72553803547000E-03 
2.77289768274000E-03 2.82106687708000E-03 2.87005945657000E-03 2.91988949583000E-03 
2.97057131007000E-03 3.02211945920000E-03 3.07454875199000E-03 3.12787425037000E-03 
3.18211127372000E-03 3.23727540329000E-03 3.29338248667000E-03 3.35044864234000E-03 
3.40849026430000E-03 3.46752402678000E-03 3.52756688904000E-03 3.58863610023000E-03 
3.65074920436000E-03 3.71392404532000E-03 3.77817877202000E-03 3.84353184360000E-03 
3.91000203473000E-03 3.97760844101000E-03 4.04637048445000E-03 4.11630791906000E-03 
4.18744083651000E-03 4.25978967190000E-03 4.33337520967000E-03 4.40821858951000E-03 
4.48434131248000E-03 4.56176524715000E-03 4.64051263594000E-03 4.72060610143000E-03 
4.80206865294000E-03 4.88492369308000E-03 4.96919502449000E-03 5.05490685671000E-03 
5.14208381307000E-03 5.23075093784000E-03 5.32093370337000E-03 5.41265801740000E-03 
5.50595023058000E-03 5.60083714394000E-03 5.69734601666000E-03 5.79550457387000E-03 
5.89534101462000E-03 5.99688401999000E-03 6.10016276133000E-03 6.20520690861000E-03 
6.31204663899000E-03 6.42071264545000E-03 6.53123614564000E-03 6.64364889081000E-03 
6.75798317498000E-03 6.87427184417000E-03 6.99254830587000E-03 7.11284653861000E-03 
7.23520110175000E-03 7.35964714539000E-03 7.48622042046000E-03 7.61495728902000E-03 
7.74589473469000E-03 7.87907037325000E-03 8.01452246349000E-03 8.15228991817000E-03 
8.29241231523000E-03 8.43492990910000E-03 8.57988364234000E-03 8.72731515735000E-03 
8.87726680835000E-03 9.02978167355000E-03 9.18490356752000E-03 9.34267705378000E-03 
9.50314745760000E-03 9.66636087901000E-03 9.83236420608000E-03 1.00012051283000E-02 
1.01729321505000E-02 1.03475946065000E-02 1.05252426734000E-02 1.07059273861000E-02 
1.08897006518000E-02 1.10766152650000E-02 1.12667249226000E-02 1.14600842395000E-02 
1.16567487641000E-02 1.18567749942000E-02 1.20602203936000E-02 1.22671434082000E-02 
1.24776034829000E-02 1.26916610789000E-02 1.29093776907000E-02 1.31308158642000E-02 
1.33560392142000E-02 1.35851124430000E-02 1.38181013590000E-02 1.40550728954000E-02 
1.42960951294000E-02 1.45412373022000E-02 1.47905698382000E-02 1.50441643660000E-02 
1.53020937384000E-02 1.55644320534000E-02 1.58312546758000E-02 1.61026382585000E-02 
1.63786607648000E-02 1.66594014906000E-02 1.69449410874000E-02 1.72353615850000E-02 
1.75307464158000E-02 1.78311804379000E-02 1.81367499604000E-02 1.84475427675000E-02 
1.87636481438000E-02 1.90851569003000E-02 1.94121614004000E-02 1.97447555860000E-02 
2.00830350050000E-02 2.04270968386000E-02 2.07770399291000E-02 2.11329648083000E-02 
2.14949737266000E-02 2.18631706821000E-02 2.22376614508000E-02 2.26185536164000E-02 
2.30059566021000E-02 2.33999817011000E-02 2.38007421093000E-02 2.42083529574000E-02 
2.46229313440000E-02 2.50445963696000E-02 2.54734691703000E-02 2.59096729530000E-02 
2.63533330306000E-02 2.68045768580000E-02 2.72635340689000E-02 2.77303365128000E-02 
2.82051182930000E-02 2.86880158052000E-02 2.91791677763000E-02 2.96787153049000E-02 
3.01868019014000E-02 3.07035735292000E-02 3.12291786467000E-02 3.17637682501000E-02 
3.23074959167000E-02 3.28605178490000E-02 3.34229929194000E-02 3.39950827161000E-02 
3.45769515895000E-02 3.51687666992000E-02 3.57706980623000E-02 3.63829186019000E-02 
3.70056041973000E-02 3.76389337339000E-02 3.82830891550000E-02 3.89382555140000E-02 
3.96046210276000E-02 4.02823771297000E-02 4.09717185264000E-02 4.16728432523000E-02 
4.23859527269000E-02 4.31112518127000E-02 4.38489488741000E-02 4.45992558373000E-02 
4.53623882508000E-02 4.61385653480000E-02 4.69280101093000E-02 4.77309493271000E-02 
4.85476136703000E-02 4.93782377506000E-02 5.02230601903000E-02 5.10823236907000E-02 
5.19562751013000E-02 5.28451654916000E-02 5.37492502226000E-02 5.46687890204000E-02 
5.56040460505000E-02 5.65552899943000E-02 5.75227941258000E-02 5.85068363901000E-02 
5.95076994836000E-02 6.05256709349000E-02 6.15610431874000E-02 6.26141136836000E-02 
6.36851849503000E-02 6.47745646855000E-02 6.58825658468000E-02 6.70095067417000E-02 
6.81557111185000E-02 6.93215082593000E-02 7.05072330753000E-02 7.17132262023000E-02 
7.29398340986000E-02 7.41874091450000E-02 7.54563097458000E-02 7.67469004314000E-02 
7.80595519636000E-02 7.93946414418000E-02 8.07525524113000E-02 8.21336749738000E-02 
8.35384058989000E-02 8.49671487388000E-02 8.64203139435000E-02 8.78983189794000E-02 
8.94015884486000E-02 9.09305542114000E-02 9.24856555101000E-02 9.40673390951000E-02 
9.56760593536000E-02 9.73122784398000E-02 9.89764664078000E-02 1.00669101346000E-01 
1.02390669517000E-01 1.04141665493000E-01 1.05922592302000E-01 1.07733961568000E-01 
1.09576293665000E-01 1.11450117857000E-01 1.13355972459000E-01 1.15294404985000E-01 
1.17265972310000E-01 1.19271240827000E-01 1.21310786611000E-01 1.23385195584000E-01 
1.25495063682000E-01 1.27640997032000E-01 1.29823612117000E-01 1.32043535961000E-01 
1.34301406305000E-01 1.36597871791000E-01 1.38933592150000E-01 1.41309238388000E-01 
1.43725492984000E-01 1.46183050079000E-01 1.48682615684000E-01 1.51224907874000E-01 
1.53810657001000E-01 1.56440605900000E-01 1.59115510106000E-01 1.61836138066000E-01 
1.64603271363000E-01 1.67417704943000E-01 1.70280247337000E-01 1.73191720898000E-01 
1.76152962037000E-01 1.79164821460000E-01 1.82228164416000E-01 1.85343870945000E-01 
1.88512836129000E-01 1.91735970350000E-01 1.95014199552000E-01 1.98348465507000E-01 
2.01739726085000E-01 2.05188955530000E-01 2.08697144739000E-01 2.12265301546000E-01 
2.15894451014000E-01 2.19585635727000E-01 2.23339916092000E-01 2.27158370639000E-01 
2.31042096338000E-01 2.34992208908000E-01 2.39009843140000E-01 2.43096153221000E-01 
2.47252313070000E-01 2.51479516672000E-01 2.55778978420000E-01 2.60151933465000E-01 
2.64599638075000E-01 2.69123369987000E-01 2.73724428783000E-01 2.78404136258000E-01 
2.83163836801000E-01 2.88004897782000E-01 2.92928709945000E-01 2.97936687804000E-01 
3.03030270056000E-01 3.08210919988000E-01 3.13480125900000E-01 3.18839401534000E-01 
3.24290286505000E-01 3.29834346747000E-01 3.35473174962000E-01 3.41208391075000E-01 
3.47041642704000E-01 3.52974605628000E-01 3.59008984274000E-01 3.65146512200000E-01 
3.71388952601000E-01 3.77738098809000E-01 3.84195774810000E-01 3.90763835770000E-01 
3.97444168565000E-01 4.04238692327000E-01 4.11149358989000E-01 4.18178153854000E-01 
4.25327096157000E-01 4.32598239652000E-01 4.39993673198000E-01 4.47515521358000E-01 
4.55165945015000E-01 4.62947141988000E-01 4.70861347663000E-01 4.78910835639000E-01 
4.87097918379000E-01 4.95424947871000E-01 5.03894316312000E-01 5.12508456786000E-01 
5.21269843969000E-01 5.30180994839000E-01 5.39244469396000E-01 5.48462871402000E-01 
5.57838849124000E-01 5.67375096101000E-01 5.77074351911000E-01 5.86939402962000E-01 
5.96973083294000E-01 6.07178275387000E-01 6.17557910997000E-01 6.28114971992000E-01 
6.38852491211000E-01 6.49773553335000E-01 6.60881295775000E-01 6.72178909570000E-01 
6.83669640305000E-01 6.95356789046000E-01 7.07243713283000E-01 7.19333827901000E-01 
7.31630606156000E-01 7.44137580673000E-01 7.56858344464000E-01 7.69796551959000E-01 
7.82955920055000E-01 7.96340229183000E-01 8.09953324396000E-01 8.23799116473000E-01 
8.37881583042000E-01 8.52204769724000E-01 8.66772791292000E-01 8.81589832857000E-01 
8.96660151070000E-01 9.11988075340000E-01 9.27578009083000E-01 9.43434430986000E-01 
9.59561896292000E-01 9.75965038110000E-01 9.92648568745000E-01 1.00961728105000E+00 
1.02687604981000E+00 1.04442983314000E+00 1.06228367390000E+00 1.08044270114000E+00 
1.09891213162000E+00 1.11769727123000E+00 1.13680351659000E+00 1.15623635654000E+00 
1.17600137378000E+00 1.19610424640000E+00 1.21655074957000E+00 1.23734675717000E+00 
1.25849824351000E+00 1.28001128498000E+00 1.30189206188000E+00 1.32414686011000E+00 
1.34678207307000E+00 1.36980420340000E+00 1.39321986492000E+00 1.41703578449000E+00 
1.44125880397000E+00 1.46589588216000E+00 1.49095409682000E+00 1.51644064669000E+00 
1.54236285356000E+00 1.56872816438000E+00 1.59554415339000E+00 1.62281852430000E+00 
1.65055911253000E+00 1.67877388739000E+00 1.70747095445000E+00 1.73665855783000E+00 
1.76634508255000E+00 1.79653905698000E+00 1.82724915526000E+00 1.85848419982000E+00 
1.89025316386000E+00 1.92256517402000E+00 1.95542951289000E+00 1.98885562176000E+00 
2.02285310332000E+00 2.05743172438000E+00 2.09260141871000E+00 2.12837228988000E+00 
2.16475461416000E+00 2.20175884351000E+00 2.23939560851000E+00 2.27767572149000E+00 
2.31661017957000E+00 2.35621016788000E+00 2.39648706272000E+00 2.43745243486000E+00 
2.47911805287000E+00 2.52149588647000E+00 2.56459811000000E+00 2.60843710588000E+00 
2.65302546821000E+00 2.69837600637000E+00 2.74450174869000E+00 2.79141594620000E+00 
2.83913207644000E+00 2.88766384733000E+00 2.93702520112000E+00 2.98723031836000E+00 
3.03829362201000E+00 3.09022978157000E+00 3.14305371730000E+00 3.19678060448000E+00 
3.25142587783000E+00 3.30700523585000E+00 3.36353464544000E+00 3.42103034638000E+00 
3.47950885610000E+00 3.53898697432000E+00 3.59948178797000E+00 3.66101067602000E+00 
3.72359131455000E+00 3.78724168176000E+00 3.85198006316000E+00 3.91782505684000E+00 
3.98479557880000E+00 4.05291086836000E+00 4.12219049374000E+00 4.19265435762000E+00 
4.26432270292000E+00 4.33721611856000E+00 4.41135554540000E+00 4.48676228228000E+00 
4.56345799209000E+00 4.64146470802000E+00 4.72080483989000E+00 4.80150118059000E+00 
4.88357691261000E+00 4.96705561472000E+00 5.05196126874000E+00 5.13831826643000E+00 
5.22615141646000E+00 5.31548595162000E+00 5.40634753597000E+00 5.49876227231000E+00 
5.59275670958000E+00 5.68835785059000E+00 5.78559315967000E+00 5.88449057066000E+00 
5.98507849487000E+00 6.08738582926000E+00 6.19144196475000E+00 6.29727679466000E+00 
6.40492072328000E+00 6.51440467462000E+00 6.62576010132000E+00 6.73901899363000E+00 
6.85421388864000E+00 6.97137787961000E+00 7.09054462549000E+00 7.21174836059000E+00 
7.33502390437000E+00 7.46040667154000E+00 7.58793268212000E+00 7.71763857188000E+00 
7.84956160280000E+00 7.98373967383000E+00 8.12021133171000E+00 8.25901578213000E+00 
8.40019290091000E+00 8.54378324551000E+00 8.68982806665000E+00 8.83836932018000E+00 
8.98944967914000E+00 9.14311254599000E+00 9.29940206509000E+00 9.45836313540000E+00 
9.62004142335000E+00 9.78448337600000E+00 9.95173623434000E+00 1.01218480469000E+01 
1.02948676834000E+01 1.04708448492000E+01 1.06498300990000E+01 1.08318748519000E+01 
1.10170314057000E+01 1.12053529525000E+01 1.13968935932000E+01 1.15917083539000E+01 
1.17898532011000E+01 1.19913850579000E+01 1.21963618205000E+01 1.24048423747000E+01 
1.26168866132000E+01 1.28325554519000E+01 1.30519108484000E+01 1.32750158193000E+01 
1.35019344584000E+01 1.37327319548000E+01 1.39674746124000E+01 1.42062298681000E+01 
1.44490663116000E+01 1.46960537053000E+01 1.49472630037000E+01 1.52027663746000E+01 
1.54626372189000E+01 1.57269501927000E+01 1.59957812279000E+01 1.62692075544000E+01 
1.65473077224000E+01 1.68301616247000E+01 1.71178505196000E+01 1.74104570547000E+01 
1.77080652902000E+01 1.80107607231000E+01 1.83186303119000E+01 1.86317625018000E+01 
1.89502472494000E+01 1.92741760493000E+01 1.96036419599000E+01 1.99387396305000E+01 
2.02795653281000E+01 2.06262169653000E+01 2.09787941285000E+01 2.13373981062000E+01 
2.17021319184000E+01 2.20731003462000E+01 2.24504099614000E+01 2.28341691580000E+01 
2.32244881825000E+01 2.36214791659000E+01 2.40252561562000E+01 2.44359351506000E+01 
2.48536341292000E+01 2.52784730890000E+01 2.57105740778000E+01 2.61500612300000E+01 
2.65970608018000E+01 2.70517012073000E+01 2.75141130561000E+01 2.79844291901000E+01 
2.84627847221000E+01 2.89493170742000E+01 2.94441660179000E+01 2.99474737137000E+01 
3.04593847521000E+01 3.09800461953000E+01 3.15096076192000E+01 3.20482211566000E+01 
3.25960415407000E+01 3.31532261498000E+01 3.37199350521000E+01 3.42963310522000E+01 
3.48825797375000E+01 3.54788495258000E+01 3.60853117141000E+01 3.67021405271000E+01 
3.73295131678000E+01 3.79676098682000E+01 3.86166139411000E+01 3.92767118330000E+01 
3.99480931770000E+01 4.06309508482000E+01 4.13254810182000E+01 4.20318832122000E+01 
4.27503603658000E+01 4.34811188836000E+01 4.42243686985000E+01 4.49803233316000E+01 
4.57491999542000E+01 4.65312194496000E+01 4.73266064769000E+01 4.81355895353000E+01 
4.89584010301000E+01 4.97952773391000E+01 5.06464588806000E+01 5.15121901827000E+01 
5.23927199531000E+01 5.32883011511000E+01 5.41991910598000E+01 5.51256513602000E+01 
5.60679482065000E+01 5.70263523023000E+01 5.80011389785000E+01 5.89925882726000E+01 
6.00009850086000E+01 6.10266188795000E+01 6.20697845301000E+01 6.31307816415000E+01 
6.42099150179000E+01 6.53074946733000E+01 6.64238359211000E+01 6.75592594645000E+01 
6.87140914888000E+01 6.98886637549000E+01 7.10833136946000E+01 7.22983845077000E+01 
7.35342252607000E+01 7.47911909865000E+01 7.60696427872000E+01 7.73699479372000E+01 
7.86924799890000E+01 8.00376188805000E+01 8.14057510441000E+01 8.27972695176000E+01 
8.42125740574000E+01 8.56520712531000E+01 8.71161746443000E+01 8.86053048397000E+01 
9.01198896376000E+01 9.16603641488000E+01 9.32271709218000E+01 9.48207600700000E+01 
9.64415894006000E+01 9.80901245466000E+01 9.97668391002000E+01 1.01472214749000E+02 
1.03206741415000E+02 1.04970917393000E+02 1.06765249497000E+02 1.08590253205000E+02 
1.10446452803000E+02 1.12334381544000E+02 1.14254581791000E+02 1.16207605182000E+02 
1.18194012782000E+02 1.20214375248000E+02 1.22269272991000E+02 1.24359296342000E+02 
1.26485045726000E+02 1.28647131829000E+02 1.30846175776000E+02 1.33082809311000E+02 
1.35357674974000E+02 1.37671426291000E+02 1.40024727958000E+02 1.42418256032000E+02 
1.44852698128000E+02 1.47328753615000E+02 1.49847133814000E+02 1.52408562209000E+02 
1.55013774647000E+02 1.57663519555000E+02 1.60358558155000E+02 1.63099664678000E+02 
1.65887626592000E+02 1.68723244824000E+02 1.71607333993000E+02 1.74540722640000E+02 
1.77524253473000E+02 1.80558783601000E+02 1.83645184786000E+02 1.86784343693000E+02 
1.89977162140000E+02 1.93224557363000E+02 1.96527462274000E+02 1.99886825736000E+02 
2.03303612827000E+02 
</PP_R>
    <PP_RAB>
7.63868159219000E-07 7.76925419336000E-07 7.90205875092000E-07 8.03713341705000E-07 
8.17451699608000E-07 8.31424895566000E-07 8.45636943808000E-07 8.60091927180000E-07 
8.74793998319000E-07 8.89747380846000E-07 9.04956370578000E-07 9.20425336764000E-07 
9.36158723338000E-07 9.52161050197000E-07 9.68436914502000E-07 9.84990991991000E-07 
1.00182803833000E-06 1.01895289048000E-06 1.03637046808000E-06 1.05408577486000E-06 
1.07210390009000E-06 1.09043002001000E-06 1.10906939939000E-06 1.12802739294000E-06 
1.14730944693000E-06 1.16692110072000E-06 1.18686798837000E-06 1.20715584022000E-06 
1.22779048459000E-06 1.24877784940000E-06 1.27012396393000E-06 1.29183496049000E-06 
1.31391707623000E-06 1.33637665493000E-06 1.35922014878000E-06 1.38245412028000E-06 
1.40608524409000E-06 1.43012030899000E-06 1.45456621978000E-06 1.47942999929000E-06 
1.50471879042000E-06 1.53043985813000E-06 1.55660059161000E-06 1.58320850631000E-06 
1.61027124617000E-06 1.63779658581000E-06 1.66579243271000E-06 1.69426682955000E-06 
1.72322795646000E-06 1.75268413341000E-06 1.78264382260000E-06 1.81311563087000E-06 
1.84410831217000E-06 1.87563077011000E-06 1.90769206046000E-06 1.94030139384000E-06 
1.97346813825000E-06 2.00720182188000E-06 2.04151213575000E-06 2.07640893654000E-06 
2.11190224945000E-06 2.14800227100000E-06 2.18471937205000E-06 2.22206410069000E-06 
2.26004718535000E-06 2.29867953783000E-06 2.33797225646000E-06 2.37793662928000E-06 
2.41858413727000E-06 2.45992645769000E-06 2.50197546738000E-06 2.54474324620000E-06 
2.58824208052000E-06 2.63248446670000E-06 2.67748311473000E-06 2.72325095184000E-06 
2.76980112626000E-06 2.81714701094000E-06 2.86530220744000E-06 2.91428054982000E-06 
2.96409610861000E-06 3.01476319486000E-06 3.06629636423000E-06 3.11871042121000E-06 
3.17202042335000E-06 3.22624168557000E-06 3.28138978460000E-06 3.33748056341000E-06 
3.39453013581000E-06 3.45255489103000E-06 3.51157149846000E-06 3.57159691243000E-06 
3.63264837708000E-06 3.69474343131000E-06 3.75789991383000E-06 3.82213596829000E-06 
3.88747004844000E-06 3.95392092351000E-06 4.02150768355000E-06 4.09024974493000E-06 
4.16016685591000E-06 4.23127910233000E-06 4.30360691335000E-06 4.37717106737000E-06 
4.45199269792000E-06 4.52809329983000E-06 4.60549473532000E-06 4.68421924033000E-06 
4.76428943089000E-06 4.84572830960000E-06 4.92855927229000E-06 5.01280611469000E-06 
5.09849303928000E-06 5.18564466226000E-06 5.27428602060000E-06 5.36444257926000E-06 
5.45614023846000E-06 5.54940534118000E-06 5.64426468066000E-06 5.74074550816000E-06 
5.83887554076000E-06 5.93868296932000E-06 6.04019646657000E-06 6.14344519539000E-06 
6.24845881713000E-06 6.35526750017000E-06 6.46390192859000E-06 6.57439331095000E-06 
6.68677338929000E-06 6.80107444823000E-06 6.91732932425000E-06 7.03557141513000E-06 
7.15583468953000E-06 7.27815369677000E-06 7.40256357672000E-06 7.52910006995000E-06 
7.65779952793000E-06 7.78869892353000E-06 7.92183586161000E-06 8.05724858985000E-06 
8.19497600968000E-06 8.33505768755000E-06 8.47753386620000E-06 8.62244547628000E-06 
8.76983414810000E-06 8.91974222356000E-06 9.07221276836000E-06 9.22728958433000E-06 
9.38501722204000E-06 9.54544099360000E-06 9.70860698563000E-06 9.87456207259000E-06 
1.00433539301000E-05 1.02150310489000E-05 1.03896427485000E-05 1.05672391913000E-05 
1.07478713975000E-05 1.09315912592000E-05 1.11184515555000E-05 1.13085059678000E-05 
1.15018090950000E-05 1.16984164694000E-05 1.18983845725000E-05 1.21017708512000E-05 
1.23086337345000E-05 1.25190326501000E-05 1.27330280415000E-05 1.29506813855000E-05 
1.31720552096000E-05 1.33972131103000E-05 1.36262197711000E-05 1.38591409812000E-05 
1.40960436543000E-05 1.43369958479000E-05 1.45820667830000E-05 1.48313268637000E-05 
1.50848476977000E-05 1.53427021164000E-05 1.56049641966000E-05 1.58717092811000E-05 
1.61430140005000E-05 1.64189562954000E-05 1.66996154388000E-05 1.69850720585000E-05 
1.72754081607000E-05 1.75707071534000E-05 1.78710538703000E-05 1.81765345951000E-05 
1.84872370866000E-05 1.88032506036000E-05 1.91246659306000E-05 1.94515754040000E-05 
1.97840729386000E-05 2.01222540546000E-05 2.04662159048000E-05 2.08160573028000E-05 
2.11718787512000E-05 2.15337824707000E-05 2.19018724292000E-05 2.22762543718000E-05 
2.26570358512000E-05 2.30443262586000E-05 2.34382368551000E-05 2.38388808034000E-05 
2.42463732008000E-05 2.46608311121000E-05 2.50823736030000E-05 2.55111217745000E-05 
2.59471987975000E-05 2.63907299487000E-05 2.68418426459000E-05 2.73006664851000E-05 
2.77673332775000E-05 2.82419770874000E-05 2.87247342708000E-05 2.92157435146000E-05 
2.97151458760000E-05 3.02230848239000E-05 3.07397062793000E-05 3.12651586573000E-05 
3.17995929105000E-05 3.23431625714000E-05 3.28960237970000E-05 3.34583354137000E-05 
3.40302589626000E-05 3.46119587465000E-05 3.52036018764000E-05 3.58053583198000E-05 
3.64174009499000E-05 3.70399055945000E-05 3.76730510872000E-05 3.83170193185000E-05 
3.89719952880000E-05 3.96381671576000E-05 4.03157263056000E-05 4.10048673817000E-05 
4.17057883626000E-05 4.24186906095000E-05 4.31437789254000E-05 4.38812616140000E-05 
4.46313505401000E-05 4.53942611894000E-05 4.61702127316000E-05 4.69594280825000E-05 
4.77621339683000E-05 4.85785609910000E-05 4.94089436943000E-05 5.02535206309000E-05 
5.11125344316000E-05 5.19862318744000E-05 5.28748639556000E-05 5.37786859620000E-05 
5.46979575443000E-05 5.56329427913000E-05 5.65839103062000E-05 5.75511332836000E-05 
5.85348895880000E-05 5.95354618334000E-05 6.05531374650000E-05 6.15882088411000E-05 
6.26409733179000E-05 6.37117333342000E-05 6.48007964986000E-05 6.59084756779000E-05 
6.70350890868000E-05 6.81809603797000E-05 6.93464187431000E-05 7.05317989907000E-05 
7.17374416593000E-05 7.29636931067000E-05 7.42109056113000E-05 7.54794374730000E-05 
7.67696531164000E-05 7.80819231957000E-05 7.94166247005000E-05 8.07741410649000E-05 
8.21548622769000E-05 8.35591849911000E-05 8.49875126422000E-05 8.64402555611000E-05 
8.79178310927000E-05 8.94206637159000E-05 9.09491851654000E-05 9.25038345559000E-05 
9.40850585080000E-05 9.56933112768000E-05 9.73290548822000E-05 9.89927592417000E-05 
1.00684902305000E-04 1.02405970193000E-04 1.04156457334000E-04 1.05936866610000E-04 
1.07747709498000E-04 1.09589506218000E-04 1.11462785882000E-04 1.13368086648000E-04 
1.15305955871000E-04 1.17276950264000E-04 1.19281636055000E-04 1.21320589153000E-04 
1.23394395308000E-04 1.25503650284000E-04 1.27648960031000E-04 1.29830940855000E-04 
1.32050219595000E-04 1.34307433808000E-04 1.36603231947000E-04 1.38938273552000E-04 
1.41313229434000E-04 1.43728781873000E-04 1.46185624809000E-04 1.48684464046000E-04 
1.51226017453000E-04 1.53811015169000E-04 1.56440199812000E-04 1.59114326698000E-04 
1.61834164051000E-04 1.64600493227000E-04 1.67414108940000E-04 1.70275819487000E-04 
1.73186446982000E-04 1.76146827592000E-04 1.79157811777000E-04 1.82220264534000E-04 
1.85335065647000E-04 1.88503109938000E-04 1.91725307525000E-04 1.95002584083000E-04 
1.98335881109000E-04 2.01726156197000E-04 2.05174383305000E-04 2.08681553044000E-04 
2.12248672954000E-04 2.15876767801000E-04 2.19566879866000E-04 2.23320069247000E-04 
2.27137414162000E-04 2.31020011261000E-04 2.34968975939000E-04 2.38985442657000E-04 
2.43070565268000E-04 2.47225517348000E-04 2.51451492536000E-04 2.55749704872000E-04 
2.60121389149000E-04 2.64567801267000E-04 2.69090218596000E-04 2.73689940337000E-04 
2.78368287901000E-04 2.83126605288000E-04 2.87966259471000E-04 2.92888640787000E-04 
2.97895163341000E-04 3.02987265412000E-04 3.08166409861000E-04 3.13434084557000E-04 
3.18791802799000E-04 3.24241103758000E-04 3.29783552911000E-04 3.35420742498000E-04 
3.41154291973000E-04 3.46985848475000E-04 3.52917087297000E-04 3.58949712368000E-04 
3.65085456746000E-04 3.71326083111000E-04 3.77673384274000E-04 3.84129183692000E-04 
3.90695335991000E-04 3.97373727500000E-04 4.04166276792000E-04 4.11074935234000E-04 
4.18101687550000E-04 4.25248552390000E-04 4.32517582910000E-04 4.39910867363000E-04 
4.47430529695000E-04 4.55078730160000E-04 4.62857665938000E-04 4.70769571767000E-04 
4.78816720584000E-04 4.87001424179000E-04 4.95326033859000E-04 5.03792941124000E-04 
5.12404578353000E-04 5.21163419501000E-04 5.30071980815000E-04 5.39132821551000E-04 
5.48348544714000E-04 5.57721797803000E-04 5.67255273573000E-04 5.76951710805000E-04 
5.86813895100000E-04 5.96844659671000E-04 6.07046886164000E-04 6.17423505480000E-04 
6.27977498622000E-04 6.38711897547000E-04 6.49629786040000E-04 6.60734300600000E-04 
6.72028631339000E-04 6.83516022900000E-04 6.95199775387000E-04 7.07083245317000E-04 
7.19169846581000E-04 7.31463051425000E-04 7.43966391449000E-04 7.56683458621000E-04 
7.69617906309000E-04 7.82773450328000E-04 7.96153870012000E-04 8.09763009297000E-04 
8.23604777825000E-04 8.37683152068000E-04 8.52002176470000E-04 8.66565964611000E-04 
8.81378700385000E-04 8.96444639204000E-04 9.11768109221000E-04 9.27353512572000E-04 
9.43205326642000E-04 9.59328105351000E-04 9.75726480461000E-04 9.92405162907000E-04 
1.00936894415000E-03 1.02662269756000E-03 1.04417137981000E-03 1.06202003229000E-03 
1.08017378257000E-03 1.09863784588000E-03 1.11741752658000E-03 1.13651821971000E-03 
1.15594541254000E-03 1.17570468611000E-03 1.19580171689000E-03 1.21624227837000E-03 
1.23703224271000E-03 1.25817758248000E-03 1.27968437232000E-03 1.30155879072000E-03 