<UPF version="2.0.1">
  <PP_INFO>
Generated using Vanderbilt code, version   7  3  6
Author: kfg        Generation date:    1    4   15
Automatically converted from original USPP format to UPF.v1.

Futher converted to UPF.v2 format.
Convert Q_IJ to Q_IJL use the same routine as 'upflib/upf_to_internal.f90' of QE.
The conversion is done by using PseudoPotentialIO.jl package.
Converted by: JYU on 2024-04-30

1        The Pseudo was generated with a Scalar-Relativistic Calculation
1.60000000000E+00    Local Potential cutoff radius
nl pn  l   occ               Rcut            Rcut US             E pseu
3S  3  0  2.00      0.00000000000      1.65000000000     -2.80499226700
3P  3  1  6.00      0.00000000000      1.65000000000     -1.58918694300
4S  4  0  0.50      0.00000000000      1.65000000000     -0.31480702000
4P  4  1  0.00      0.00000000000      1.65000000000     -0.17549169200
</PP_INFO>
  <PP_HEADER element="K" pseudo_type="US" relativistic="scalar" is_ultrasoft="T" is_paw="F" is_coulomb="F" has_so="F" has_wfc="F" has_gipaw="F" core_correction="T" functional="PBE" z_valence="9.0" total_psenergy="-56.795383327" wfc_cutoff="0.0" rho_cutoff="0.0" l_max="2" mesh_size="841" number_of_wfc="4" number_of_proj="6"/>
  <PP_MESH>
    <PP_R>
0.00000000000000E+00 3.01160586119000E-09 6.09945088773000E-09 9.26546508328000E-09 
1.25116273098000E-08 1.58399665243000E-08 1.92525630471000E-08 2.27515498623000E-08 
2.63391139503000E-08 3.00174976557000E-08 3.37890000879000E-08 3.76559785587000E-08 
4.16208500555000E-08 4.56860927522000E-08 4.98542475577000E-08 5.41279197045000E-08 
5.85097803767000E-08 6.30025683800000E-08 6.76090918531000E-08 7.23322300231000E-08 
7.71749350051000E-08 8.21402336474000E-08 8.72312294233000E-08 9.24511043709000E-08 
9.78031210818000E-08 1.03290624741000E-07 1.08917045216000E-07 1.14685899204000E-07 
1.20600792426000E-07 1.26665421883000E-07 1.32883578166000E-07 1.39259147824000E-07 
1.45796115796000E-07 1.52498567901000E-07 1.59370693388000E-07 1.66416787561000E-07 
1.73641254456000E-07 1.81048609602000E-07 1.88643482836000E-07 1.96430621201000E-07 
2.04414891913000E-07 2.12601285400000E-07 2.20994918425000E-07 2.29601037281000E-07 
2.38425021074000E-07 2.47472385079000E-07 2.56748784195000E-07 2.66260016473000E-07 
2.76012026742000E-07 2.86010910326000E-07 2.96262916854000E-07 3.06774454162000E-07 
3.17552092304000E-07 3.28602567655000E-07 3.39932787121000E-07 3.51549832458000E-07 
3.63460964698000E-07 3.75673628687000E-07 3.88195457736000E-07 4.01034278397000E-07 
4.14198115350000E-07 4.27695196422000E-07 4.41533957729000E-07 4.55723048945000E-07 
4.70271338716000E-07 4.85187920196000E-07 5.00482116734000E-07 5.16163487701000E-07 
5.32241834464000E-07 5.48727206512000E-07 5.65629907741000E-07 5.82960502889000E-07 
6.00729824142000E-07 6.18948977904000E-07 6.37629351739000E-07 6.56782621490000E-07 
6.76420758572000E-07 6.96556037462000E-07 7.17201043364000E-07 7.38368680078000E-07 
7.60072178067000E-07 7.82325102723000E-07 8.05141362849000E-07 8.28535219350000E-07 
8.52521294147000E-07 8.77114579320000E-07 9.02330446470000E-07 9.28184656336000E-07 
9.54693368642000E-07 9.81873152194000E-07 1.00974099524000E-06 1.03831431610000E-06 
1.06761097401000E-06 1.09764928035000E-06 1.12844801004000E-06 1.16002641328000E-06 
1.19240422761000E-06 1.22560169020000E-06 1.25963955057000E-06 1.29453908347000E-06 
1.33032210225000E-06 1.36701097247000E-06 1.40462862585000E-06 1.44319857467000E-06 
1.48274492639000E-06 1.52329239877000E-06 1.56486633530000E-06 1.60749272104000E-06 
1.65119819888000E-06 1.69601008616000E-06 1.74195639176000E-06 1.78906583363000E-06 
1.83736785669000E-06 1.88689265129000E-06 1.93767117204000E-06 1.98973515716000E-06 
2.04311714833000E-06 2.09785051105000E-06 2.15396945544000E-06 2.21150905767000E-06 
2.27050528187000E-06 2.33099500259000E-06 2.39301602789000E-06 2.45660712291000E-06 
2.52180803417000E-06 2.58865951435000E-06 2.65720334782000E-06 2.72748237669000E-06 
2.79954052764000E-06 2.87342283937000E-06 2.94917549073000E-06 3.02684582959000E-06 
3.10648240243000E-06 3.18813498472000E-06 3.27185461197000E-06 3.35769361167000E-06 
3.44570563599000E-06 3.53594569532000E-06 3.62847019263000E-06 3.72333695873000E-06 
3.82060528846000E-06 3.92033597767000E-06 4.02259136131000E-06 4.12743535230000E-06 
4.23493348156000E-06 4.34515293892000E-06 4.45816261513000E-06 4.57403314491000E-06 
4.69283695112000E-06 4.81464829000000E-06 4.93954329760000E-06 5.06760003738000E-06 
5.19889854895000E-06 5.33352089818000E-06 5.47155122839000E-06 5.61307581306000E-06 
5.75818310964000E-06 5.90696381492000E-06 6.05951092169000E-06 6.21591977685000E-06 
6.37628814104000E-06 6.54071624969000E-06 6.70930687572000E-06 6.88216539378000E-06 
7.05939984605000E-06 7.24112100985000E-06 7.42744246681000E-06 7.61848067390000E-06 
7.81435503624000E-06 8.01518798166000E-06 8.22110503730000E-06 8.43223490803000E-06 
8.64870955688000E-06 8.87066428755000E-06 9.09823782898000E-06 9.33157242204000E-06 
9.57081390845000E-06 9.81611182192000E-06 1.00676194816000E-05 1.03254940881000E-05 
1.05898968212000E-05 1.08609929415000E-05 1.11389518927000E-05 1.14239474082000E-05 
1.17161576196000E-05 1.20157651677000E-05 1.23229573169000E-05 1.26379260725000E-05 
1.29608683001000E-05 1.32919858490000E-05 1.36314856787000E-05 1.39795799874000E-05 
1.43364863455000E-05 1.47024278311000E-05 1.50776331695000E-05 1.54623368763000E-05 
1.58567794038000E-05 1.62612072914000E-05 1.66758733197000E-05 1.71010366685000E-05 
1.75369630787000E-05 1.79839250185000E-05 1.84422018538000E-05 1.89120800223000E-05 
1.93938532133000E-05 1.98878225507000E-05 2.03942967814000E-05 2.09135924682000E-05 
2.14460341880000E-05 2.19919547341000E-05 2.25516953247000E-05 2.31256058157000E-05 
2.37140449200000E-05 2.43173804311000E-05 2.49359894534000E-05 2.55702586377000E-05 
2.62205844228000E-05 2.68873732836000E-05 2.75710419847000E-05 2.82720178414000E-05 
2.89907389864000E-05 2.97276546438000E-05 3.04832254098000E-05 3.12579235409000E-05 
3.20522332486000E-05 3.28666510022000E-05 3.37016858394000E-05 3.45578596842000E-05 
3.54357076730000E-05 3.63357784895000E-05 3.72586347071000E-05 3.82048531412000E-05 
3.91750252089000E-05 4.01697572995000E-05 4.11896711528000E-05 4.22354042483000E-05 
4.33076102031000E-05 4.44069591809000E-05 4.55341383105000E-05 4.66898521157000E-05 
4.78748229551000E-05 4.90897914742000E-05 5.03355170677000E-05 5.16127783548000E-05 
5.29223736653000E-05 5.42651215390000E-05 5.56418612369000E-05 5.70534532662000E-05 
5.85007799178000E-05 5.99847458180000E-05 6.15062784939000E-05 6.30663289528000E-05 
6.46658722772000E-05 6.63059082336000E-05 6.79874618978000E-05 6.97115842958000E-05 
7.14793530600000E-05 7.32918731036000E-05 7.51502773106000E-05 7.70557272440000E-05 
7.90094138721000E-05 8.10125583127000E-05 8.30664125963000E-05 8.51722604485000E-05 
8.73314180930000E-05 8.95452350735000E-05 9.18150950976000E-05 9.41424169018000E-05 
9.65286551380000E-05 9.89753012827000E-05 1.01483884570000E-04 1.04055972945000E-04 
1.06693174047000E-04 1.09397136213000E-04 1.12169549507000E-04 1.15012146778000E-04 
1.17926704741000E-04 1.20915045090000E-04 1.23979035636000E-04 1.27120591471000E-04 
1.30341676172000E-04 1.33644303019000E-04 1.37030536263000E-04 1.40502492410000E-04 
1.44062341545000E-04 1.47712308690000E-04 1.51454675194000E-04 1.55291780156000E-04 
1.59226021893000E-04 1.63259859434000E-04 1.67395814058000E-04 1.71636470872000E-04 
1.75984480424000E-04 1.80442560363000E-04 1.85013497132000E-04 1.89700147716000E-04 
1.94505441425000E-04 1.99432381723000E-04 2.04484048109000E-04 2.09663598038000E-04 
2.14974268898000E-04 2.20419380030000E-04 2.26002334808000E-04 2.31726622758000E-04 
2.37595821748000E-04 2.43613600217000E-04 2.49783719474000E-04 2.56110036043000E-04 
2.62596504079000E-04 2.69247177835000E-04 2.76066214199000E-04 2.83057875290000E-04 
2.90226531124000E-04 2.97576662345000E-04 3.05112863023000E-04 3.12839843530000E-04 
3.20762433479000E-04 3.28885584749000E-04 3.37214374571000E-04 3.45754008712000E-04 
3.54509824720000E-04 3.63487295266000E-04 3.72692031560000E-04 3.82129786864000E-04 
3.91806460080000E-04 4.01728099445000E-04 4.11900906306000E-04 4.22331238999000E-04 
4.33025616822000E-04 4.43990724108000E-04 4.55233414406000E-04 4.66760714764000E-04 
4.78579830120000E-04 4.90698147806000E-04 5.03123242165000E-04 5.15862879285000E-04 
5.28925021854000E-04 5.42317834137000E-04 5.56049687076000E-04 5.70129163528000E-04 
5.84565063623000E-04 5.99366410269000E-04 6.14542454789000E-04 6.30102682705000E-04 
6.46056819666000E-04 6.62414837528000E-04 6.79186960583000E-04 6.96383671954000E-04 
7.14015720147000E-04 7.32094125765000E-04 7.50630188400000E-04 7.69635493694000E-04 
7.89121920583000E-04 8.09101648717000E-04 8.29587166076000E-04 8.50591276777000E-04 
8.72127109071000E-04 8.94208123556000E-04 9.16848121584000E-04 9.40061253890000E-04 
9.63862029438000E-04 9.88265324488000E-04 1.01328639189000E-03 1.03894087064000E-03 
1.06524479560000E-03 1.09221460759000E-03 1.11986716363000E-03 1.14821974745000E-03 
1.17729008036000E-03 1.20709633224000E-03 1.23765713298000E-03 1.26899158407000E-03 
1.30111927058000E-03 1.33406027333000E-03 1.36783518154000E-03 1.40246510563000E-03 
1.43797169042000E-03 1.47437712867000E-03 1.51170417499000E-03 1.54997615998000E-03 
1.58921700489000E-03 1.62945123651000E-03 1.67070400256000E-03 1.71300108735000E-03 
1.75636892794000E-03 1.80083463065000E-03 1.84642598797000E-03 1.89317149600000E-03 
1.94110037220000E-03 1.99024257368000E-03 2.04062881591000E-03 2.09229059194000E-03 
2.14526019205000E-03 2.19957072397000E-03 2.25525613356000E-03 2.31235122600000E-03 
2.37089168759000E-03 2.43091410801000E-03 2.49245600325000E-03 2.55555583898000E-03 
2.62025305466000E-03 2.68658808814000E-03 2.75460240100000E-03 2.82433850439000E-03 
2.89583998563000E-03 2.96915153549000E-03 3.04431897608000E-03 3.12138928948000E-03 
3.20041064715000E-03 3.28143244001000E-03 3.36450530933000E-03 3.44968117835000E-03 
3.53701328475000E-03 3.62655621396000E-03 3.71836593321000E-03 3.81249982657000E-03 
3.90901673079000E-03 4.00797697206000E-03 4.10944240378000E-03 4.21347644512000E-03 
4.32014412076000E-03 4.42951210147000E-03 4.54164874579000E-03 4.65662414277000E-03 
4.77451015579000E-03 4.89538046743000E-03 5.01931062559000E-03 5.14637809063000E-03 
5.27666228386000E-03 5.41024463715000E-03 5.54720864381000E-03 5.68763991081000E-03 
5.83162621226000E-03 5.97925754428000E-03 6.13062618127000E-03 6.28582673354000E-03 
6.44495620650000E-03 6.60811406125000E-03 6.77540227676000E-03 6.94692541360000E-03 
7.12279067933000E-03 7.30310799545000E-03 7.48799006616000E-03 7.67755244878000E-03 
7.87191362596000E-03 8.07119507976000E-03 8.27552136759000E-03 8.48502020002000E-03 
8.69982252064000E-03 8.92006258790000E-03 9.14587805900000E-03 9.37741007597000E-03 
9.61480335386000E-03 9.85820627119000E-03 1.01077709627000E-02 1.03636534145000E-02 
1.06260135613000E-02 1.08950153869000E-02 1.11708270262000E-02 1.14536208703000E-02 
1.17435736747000E-02 1.20408666693000E-02 1.23456856718000E-02 1.26582212042000E-02 
1.29786686112000E-02 1.33072281829000E-02 1.36441052798000E-02 1.39895104610000E-02 
1.43436596160000E-02 1.47067740996000E-02 1.50790808700000E-02 1.54608126313000E-02 
1.58522079780000E-02 1.62535115452000E-02 1.66649741605000E-02 1.70868530015000E-02 
1.75194117562000E-02 1.79629207880000E-02 1.84176573043000E-02 1.88839055303000E-02 
1.93619568864000E-02 1.98521101702000E-02 2.03546717434000E-02 2.08699557235000E-02 
2.13982841795000E-02 2.19399873342000E-02 2.24954037694000E-02 2.30648806387000E-02 
2.36487738836000E-02 2.42474484563000E-02 2.48612785480000E-02 2.54906478224000E-02 
2.61359496559000E-02 2.67975873831000E-02 2.74759745490000E-02 2.81715351679000E-02 
2.88847039876000E-02 2.96159267620000E-02 3.03656605290000E-02 3.11343738967000E-02 
3.19225473360000E-02 3.27306734808000E-02 3.35592574364000E-02 3.44088170948000E-02 
3.52798834582000E-02 3.61730009717000E-02 3.70887278626000E-02 3.80276364901000E-02 
3.89903137028000E-02 3.99773612050000E-02 4.09893959338000E-02 4.20270504437000E-02 
4.30909733026000E-02 4.41818294968000E-02 4.53003008471000E-02 4.64470864345000E-02 
4.76229030372000E-02 4.88284855789000E-02 5.00645875880000E-02 5.13319816684000E-02 
5.26314599827000E-02 5.39638347471000E-02 5.53299387393000E-02 5.67306258187000E-02 
5.81667714603000E-02 5.96392733020000E-02 6.11490517052000E-02 6.26970503307000E-02 
6.42842367279000E-02 6.59116029401000E-02 6.75801661241000E-02 6.92909691862000E-02 
7.10450814340000E-02 7.28435992448000E-02 7.46876467507000E-02 7.65783765415000E-02 
7.85169703848000E-02 8.05046399649000E-02 8.25426276400000E-02 8.46322072188000E-02 
8.67746847564000E-02 8.89713993710000E-02 9.12237240809000E-02 9.35330666623000E-02 
9.59008705295000E-02 9.83286156370000E-02 1.00817819404000E-01 1.03370037665000E-01 
1.05986865639000E-01 1.08669938928000E-01 1.11420934541000E-01 1.14241571940000E-01 
1.17133614114000E-01 1.20098868684000E-01 1.23139189031000E-01 1.26256475455000E-01 
1.29452676359000E-01 1.32729789475000E-01 1.36089863105000E-01 1.39534997403000E-01 
1.43067345691000E-01 1.46689115802000E-01 1.50402571460000E-01 1.54210033695000E-01 
1.58113882296000E-01 1.62116557294000E-01 1.66220560493000E-01 1.70428457027000E-01 
1.74742876969000E-01 1.79166516972000E-01 1.83702141954000E-01 1.88352586830000E-01 
1.93120758278000E-01 1.98009636562000E-01 2.03022277388000E-01 2.08161813821000E-01 
2.13431458238000E-01 2.18834504338000E-01 2.24374329202000E-01 2.30054395400000E-01 
2.35878253158000E-01 2.41849542578000E-01 2.47971995908000E-01 2.54249439883000E-01 
2.60685798109000E-01 2.67285093518000E-01 2.74051450887000E-01 2.80989099408000E-01 
2.88102375337000E-01 2.95395724703000E-01 3.02873706088000E-01 3.10540993473000E-01 
3.18402379162000E-01 3.26462776778000E-01 3.34727224330000E-01 3.43200887368000E-01 
3.51889062208000E-01 3.60797179241000E-01 3.69930806329000E-01 3.79295652289000E-01 
3.88897570453000E-01 3.98742562332000E-01 4.08836781367000E-01 4.19186536774000E-01 
4.29798297486000E-01 4.40678696200000E-01 4.51834533518000E-01 4.63272782203000E-01 
4.75000591532000E-01 4.87025291767000E-01 4.99354398738000E-01 5.11995618538000E-01 
5.24956852341000E-01 5.38246201340000E-01 5.51871971810000E-01 5.65842680302000E-01 
5.80167058964000E-01 5.94854060997000E-01 6.09912866258000E-01 6.25352886988000E-01 
6.41183773704000E-01 6.57415421225000E-01 6.74057974860000E-01 6.91121836745000E-01 
7.08617672351000E-01 7.26556417144000E-01 7.44949283423000E-01 7.63807767330000E-01 
7.83143656029000E-01 8.02969035081000E-01 8.23296295993000E-01 8.44138143965000E-01 
8.65507605830000E-01 8.87418038198000E-01 9.09883135802000E-01 9.32916940060000E-01 
9.56533847848000E-01 9.80748620504000E-01 1.00557639305000E+00 1.03103268365000E+00 
1.05713340331000E+00 1.08389486584000E+00 1.11133379801000E+00 1.13946735006000E+00 
1.16831310637000E+00 1.19788909648000E+00 1.22821380635000E+00 1.25930618990000E+00 
1.29118568088000E+00 1.32387220503000E+00 1.35738619247000E+00 1.39174859054000E+00 
1.42698087686000E+00 1.46310507275000E+00 1.50014375702000E+00 1.53812008005000E+00 
1.57705777827000E+00 1.61698118901000E+00 1.65791526571000E+00 1.69988559349000E+00 
1.74291840518000E+00 1.78704059768000E+00 1.83227974880000E+00 1.87866413449000E+00 
1.92622274649000E+00 1.97498531049000E+00 2.02498230467000E+00 2.07624497878000E+00 
2.12880537367000E+00 2.18269634129000E+00 2.23795156525000E+00 2.29460558186000E+00 
2.35269380174000E+00 2.41225253189000E+00 2.47331899849000E+00 2.53593137004000E+00 
2.60012878133000E+00 2.66595135782000E+00 2.73344024076000E+00 2.80263761292000E+00 
2.87358672488000E+00 2.94633192217000E+00 3.02091867290000E+00 3.09739359621000E+00 
3.17580449142000E+00 3.25620036790000E+00 3.33863147567000E+00 3.42314933688000E+00 
3.50980677793000E+00 3.59865796254000E+00 3.68975842560000E+00 3.78316510786000E+00 
3.87893639154000E+00 3.97713213681000E+00 4.07781371921000E+00 4.18104406800000E+00 
4.28688770551000E+00 4.39541078746000E+00 4.50668114431000E+00 4.62076832365000E+00 
4.73774363369000E+00 4.85768018781000E+00 4.98065295024000E+00 5.10673878298000E+00 
5.23601649377000E+00 5.36856688539000E+00 5.50447280615000E+00 5.64381920167000E+00 
5.78669316799000E+00 5.93318400599000E+00 6.08338327720000E+00 6.23738486107000E+00 
6.39528501360000E+00 6.55718242752000E+00 6.72317829398000E+00 6.89337636582000E+00 
7.06788302235000E+00 7.24680733592000E+00 7.43026114006000E+00 7.61835909936000E+00 
7.81121878117000E+00 8.00896072907000E+00 8.21170853821000E+00 8.41958893258000E+00 
8.63273184419000E+00 8.85127049429000E+00 9.07534147666000E+00 9.30508484295000E+00 
9.54064419025000E+00 9.78216675082000E+00 1.00298034841000E+01 1.02837091712000E+01 
1.05440425113000E+01 1.08109662213000E+01 1.10846471372000E+01 1.13652563184000E+01 
1.16529691549000E+01 1.19479654766000E+01 1.22504296656000E+01 1.25605507721000E+01 
1.28785226318000E+01 1.32045439874000E+01 1.35388186129000E+01 1.38815554409000E+01 
1.42329686929000E+01 1.45932780138000E+01 1.49627086086000E+01 1.53414913834000E+01 
1.57298630898000E+01 1.61280664728000E+01 1.65363504224000E+01 1.69549701294000E+01 
1.73841872447000E+01 1.78242700430000E+01 1.82754935904000E+01 1.87381399163000E+01 
1.92124981897000E+01 1.96988649000000E+01 2.01975440421000E+01 2.07088473069000E+01 
2.12330942754000E+01 2.17706126191000E+01 2.23217383044000E+01 2.28868158029000E+01 
2.34661983064000E+01 2.40602479478000E+01 2.46693360275000E+01 2.52938432453000E+01 
2.59341599386000E+01 2.65906863261000E+01 2.72638327583000E+01 2.79540199736000E+01 
2.86616793613000E+01 2.93872532318000E+01 3.01311950923000E+01 3.08939699306000E+01 
3.16760545059000E+01 3.24779376464000E+01 3.33001205554000E+01 3.41431171237000E+01 
3.50074542518000E+01 3.58936721784000E+01 3.68023248187000E+01 3.77339801101000E+01 
3.86892203675000E+01 3.96686426471000E+01 4.06728591197000E+01 4.17024974534000E+01 
4.27582012056000E+01 4.38406302256000E+01 4.49504610666000E+01 4.60883874092000E+01 
4.72551204942000E+01 4.84513895679000E+01 4.96779423374000E+01 5.09355454381000E+01 
5.22249849129000E+01 5.35470667033000E+01 5.49026171537000E+01 5.62924835270000E+01 
5.77175345352000E+01 5.91786608813000E+01 6.06767758170000E+01 6.22128157129000E+01 
6.37877406438000E+01 6.54025349892000E+01 6.70582080481000E+01 6.87557946700000E+01 
7.04963559018000E+01 7.22809796510000E+01 7.41107813655000E+01 7.59869047309000E+01 
7.79105223855000E+01 7.98828366528000E+01 8.19050802935000E+01 8.39785172757000E+01 
8.61044435650000E+01 8.82841879346000E+01 9.05191127956000E+01 9.28106150488000E+01 
9.51601269577000E+01 9.75691170437000E+01 1.00039091004000E+02 1.02571592653000E+02 
1.05168204887000E+02 1.07830550672000E+02 1.10560294061000E+02 1.13359141233000E+02 
1.16228841559000E+02 1.19171188695000E+02 1.22188021703000E+02 1.25281226202000E+02 
1.28452735545000E+02 1.31704532031000E+02 1.35038648135000E+02 1.38457167792000E+02 
1.41962227685000E+02 1.45556018591000E+02 1.49240786748000E+02 1.53018835255000E+02 
1.56892525515000E+02 
</PP_R>
    <PP_RAB>
2.97411764076000E-09 3.04940778729000E-09 3.12660391296000E-09 3.20575426785000E-09 
3.28690832351000E-09 3.37011680387000E-09 3.45543171694000E-09 3.54290638732000E-09 
3.63259548952000E-09 3.72455508216000E-09 3.81884264296000E-09 3.91551710473000E-09 
4.01463889215000E-09 4.11626995957000E-09 4.22047382971000E-09 4.32731563338000E-09 
4.43686215018000E-09 4.54918185027000E-09 4.66434493709000E-09 4.78242339134000E-09 
4.90349101589000E-09 5.02762348195000E-09 5.15489837635000E-09 5.28539525004000E-09 
5.41919566781000E-09 5.55638325929000E-09 5.69704377117000E-09 5.84126512088000E-09 
5.98913745143000E-09 6.14075318785000E-09 6.29620709491000E-09 6.45559633636000E-09 
6.61902053567000E-09 6.78658183829000E-09 6.95838497547000E-09 7.13453732978000E-09 
7.31514900217000E-09 7.50033288082000E-09 7.69020471167000E-09 7.88488317080000E-09 
8.08448993859000E-09 8.28914977576000E-09 8.49899060138000E-09 8.71414357279000E-09 
8.93474316760000E-09 9.16092726775000E-09 9.39283724565000E-09 9.63061805259000E-09 
9.87441830931000E-09 1.01243903989000E-08 1.03806905621000E-08 1.06434789948000E-08 
1.09129199484000E-08 1.11891818321000E-08 1.14724373188000E-08 1.17628634522000E-08 
1.20606417582000E-08 1.23659583579000E-08 1.26790040842000E-08 1.29999746007000E-08 
1.33290705245000E-08 1.36664975513000E-08 1.40124665840000E-08 1.43671938644000E-08 
1.47309011087000E-08 1.51038156457000E-08 1.54861705591000E-08 1.58782048333000E-08 
1.62801635024000E-08 1.66922978036000E-08 1.71148653343000E-08 1.75481302130000E-08 
1.79923632443000E-08 1.84478420884000E-08 1.89148514342000E-08 1.93936831780000E-08 
1.98846366051000E-08 2.03880185773000E-08 2.09041437249000E-08 2.14333346427000E-08 
2.19759220924000E-08 2.25322452088000E-08 2.31026517120000E-08 2.36874981245000E-08 
2.42871499944000E-08 2.49019821238000E-08 2.55323788025000E-08 2.61787340492000E-08 
2.68414518568000E-08 2.75209464456000E-08 2.82176425218000E-08 2.89319755432000E-08 
2.96643919911000E-08 3.04153496496000E-08 3.11853178918000E-08 3.19747779728000E-08 
3.27842233309000E-08 3.36141598958000E-08 3.44651064049000E-08 3.53375947275000E-08 
3.62321701970000E-08 3.71493919524000E-08 3.80898332871000E-08 3.90540820075000E-08 
4.00427408005000E-08 4.10564276100000E-08 4.20957760233000E-08 4.31614356669000E-08 
4.42540726128000E-08 4.53743697947000E-08 4.65230274347000E-08 4.77007634814000E-08 
4.89083140581000E-08 5.01464339231000E-08 5.14158969417000E-08 5.27174965697000E-08 
5.40520463491000E-08 5.54203804170000E-08 5.68233540268000E-08 5.82618440826000E-08 
5.97367496875000E-08 6.12489927056000E-08 6.27995183379000E-08 6.43892957135000E-08 
6.60193184950000E-08 6.76906054996000E-08 6.94042013362000E-08 7.11611770579000E-08 
7.29626308318000E-08 7.48096886251000E-08 7.67035049090000E-08 7.86452633805000E-08 
8.06361777016000E-08 8.26774922588000E-08 8.47704829399000E-08 8.69164579325000E-08 
8.91167585406000E-08 9.13727600238000E-08 9.36858724565000E-08 9.60575416091000E-08 
9.84892498522000E-08 1.00982517083000E-07 1.03538901673000E-07 1.06160001448000E-07 
1.08847454680000E-07 1.11602941114000E-07 1.14428183019000E-07 1.17324946263000E-07 
1.20295041419000E-07 1.23340324891000E-07 1.26462700081000E-07 1.29664118575000E-07 
1.32946581365000E-07 1.36312140095000E-07 1.39762898351000E-07 1.43301012967000E-07 
1.46928695382000E-07 1.50648213014000E-07 1.54461890683000E-07 1.58372112062000E-07 
1.62381321167000E-07 1.66492023883000E-07 1.70706789534000E-07 1.75028252485000E-07 
1.79459113792000E-07 1.84002142887000E-07 1.88660179311000E-07 1.93436134488000E-07 
1.98332993547000E-07 2.03353817182000E-07 2.08501743573000E-07 2.13779990341000E-07 
2.19191856563000E-07 2.24740724830000E-07 2.30430063365000E-07 2.36263428192000E-07 
2.42244465352000E-07 2.48376913189000E-07 2.54664604682000E-07 2.61111469843000E-07 
2.67721538172000E-07 2.74498941178000E-07 2.81447914957000E-07 2.88572802846000E-07 
2.95878058130000E-07 3.03368246832000E-07 3.11048050564000E-07 3.18922269453000E-07 
3.26995825142000E-07 3.35273763866000E-07 3.43761259607000E-07 3.52463617326000E-07 
3.61386276279000E-07 3.70534813419000E-07 3.79914946879000E-07 3.89532539548000E-07 
3.99393602735000E-07 4.09504299925000E-07 4.19870950633000E-07 4.30500034353000E-07 
4.41398194609000E-07 4.52572243104000E-07 4.64029163985000E-07 4.75776118198000E-07 
4.87820447972000E-07 5.00169681407000E-07 5.12831537175000E-07 5.25813929347000E-07 
5.39124972342000E-07 5.52772985994000E-07 5.66766500757000E-07 5.81114263033000E-07 
5.95825240641000E-07 6.10908628419000E-07 6.26373853977000E-07 6.42230583583000E-07 
6.58488728211000E-07 6.75158449730000E-07 6.92250167258000E-07 7.09774563675000E-07 
7.27742592300000E-07 7.46165483735000E-07 7.65054752887000E-07 7.84422206164000E-07 
8.04279948855000E-07 8.24640392695000E-07 8.45516263626000E-07 8.66920609745000E-07 
8.88866809466000E-07 9.11368579877000E-07 9.34439985319000E-07 9.58095446170000E-07 
9.82349747864000E-07 1.00721805013000E-06 1.03271589646000E-06 1.05885922385000E-06 
1.08566437272000E-06 1.11314809716000E-06 1.14132757540000E-06 1.17022042053000E-06 
1.19984469152000E-06 1.23021890450000E-06 1.26136204433000E-06 1.29329357651000E-06 
1.32603345927000E-06 1.35960215612000E-06 1.39402064856000E-06 1.42931044929000E-06 
1.46549361559000E-06 1.50259276309000E-06 1.54063107999000E-06 1.57963234146000E-06 
1.61962092457000E-06 1.66062182348000E-06 1.70266066509000E-06 1.74576372504000E-06 
1.78995794414000E-06 1.83527094523000E-06 1.88173105041000E-06 1.92936729874000E-06 
1.97820946444000E-06 2.02828807546000E-06 2.07963443255000E-06 2.13228062885000E-06 
2.18625956997000E-06 2.24160499448000E-06 2.29835149508000E-06 2.35653454019000E-06 
2.41619049609000E-06 2.47735664971000E-06 2.54007123188000E-06 2.60437344125000E-06 
2.67030346881000E-06 2.73790252296000E-06 2.80721285531000E-06 2.87827778708000E-06 
2.95114173617000E-06 3.02585024490000E-06 3.10245000854000E-06 3.18098890443000E-06 
3.26151602193000E-06 3.34408169312000E-06 3.42873752422000E-06 3.51553642789000E-06 
3.60453265627000E-06 3.69578183490000E-06 3.78934099748000E-06 3.88526862154000E-06 
3.98362466497000E-06 4.08447060349000E-06 4.18786946909000E-06 4.29388588944000E-06 
4.40258612825000E-06 4.51403812671000E-06 4.62831154594000E-06 4.74547781055000E-06 
4.86561015327000E-06 4.98878366072000E-06 5.11507532036000E-06 5.24456406859000E-06 
5.37733084008000E-06 5.51345861840000E-06 5.65303248783000E-06 5.79613968659000E-06 
5.94286966133000E-06 6.09331412307000E-06 6.24756710449000E-06 6.40572501872000E-06 
6.56788671962000E-06 6.73415356352000E-06 6.90462947261000E-06 7.07942099988000E-06 
7.25863739574000E-06 7.44239067625000E-06 7.63079569321000E-06 7.82397020588000E-06 
8.02203495463000E-06 8.22511373635000E-06 8.43333348192000E-06 8.64682433543000E-06 
8.86571973564000E-06 9.09015649928000E-06 9.32027490665000E-06 9.55621878923000E-06 
9.79813561964000E-06 1.00461766038000E-05 1.03004967753000E-05 1.05612550926000E-05 
1.08286145382000E-05 1.11027422203000E-05 1.13838094778000E-05 1.16719919867000E-05 
1.19674698707000E-05 1.22704278128000E-05 1.25810551718000E-05 1.28995460998000E-05 
1.32260996640000E-05 1.35609199711000E-05 1.39042162945000E-05 1.42562032058000E-05 
1.46171007082000E-05 1.49871343744000E-05 1.53665354874000E-05 1.57555411853000E-05 
1.61543946093000E-05 1.65633450558000E-05 1.69826481322000E-05 1.74125659165000E-05 
1.78533671213000E-05 1.83053272618000E-05 1.87687288276000E-05 1.92438614600000E-05 
1.97310221322000E-05 2.02305153356000E-05 2.07426532695000E-05 2.12677560371000E-05 
2.18061518444000E-05 2.23581772065000E-05 2.29241771572000E-05 2.35045054649000E-05 
2.40995248536000E-05 2.47096072298000E-05 2.53351339150000E-05 2.59764958835000E-05 
2.66340940076000E-05 2.73083393075000E-05 2.79996532084000E-05 2.87084678040000E-05 
2.94352261265000E-05 3.01803824236000E-05 3.09444024421000E-05 3.17277637195000E-05 
3.25309558820000E-05 3.33544809510000E-05 3.41988536563000E-05 3.50646017584000E-05 
3.59522663780000E-05 3.68624023345000E-05 3.77955784924000E-05 3.87523781172000E-05 
3.97333992399000E-05 4.07392550305000E-05 4.17705741817000E-05 4.28280013015000E-05 
4.39121973162000E-05 4.50238398838000E-05 4.61636238169000E-05 4.73322615177000E-05 
4.85304834227000E-05 4.97590384596000E-05 5.10186945154000E-05 5.23102389161000E-05 
5.36344789189000E-05 5.49922422170000E-05 5.63843774566000E-05 5.78117547676000E-05 
5.92752663073000E-05 6.07758268180000E-05 6.23143741989000E-05 6.38918700921000E-05 
6.55093004840000E-05 6.71676763213000E-05 6.88680341427000E-05 7.06114367273000E-05 
7.23989737584000E-05 7.42317625050000E-05 7.61109485195000E-05 7.80377063545000E-05 
8.00132402963000E-05 8.20387851180000E-05 8.41156068509000E-05 8.62450035763000E-05 
8.84283062365000E-05 9.06668794667000E-05 9.29621224479000E-05 9.53154697819000E-05 
9.77283923873000E-05 1.00202398419000E-04 1.02739034212000E-04 1.05339885246000E-04 
1.08006577137000E-04 1.10740776654000E-04 1.13544192762000E-04 1.16418577687000E-04 
1.19365728012000E-04 1.22387485804000E-04 1.25485739757000E-04 1.28662426383000E-04 
1.31919531214000E-04 1.35259090046000E-04 1.38683190213000E-04 1.42193971888000E-04 
1.45793629424000E-04 1.49484412725000E-04 1.53268628649000E-04 1.57148642456000E-04 
1.61126879280000E-04 1.65205825649000E-04 1.69388031037000E-04 1.73676109458000E-04 
1.78072741101000E-04 1.82580674004000E-04 1.87202725772000E-04 1.91941785337000E-04 
1.96800814767000E-04 2.01782851112000E-04 2.06891008307000E-04 2.12128479118000E-04 
2.17498537134000E-04 2.23004538815000E-04 2.28649925593000E-04 2.34438226017000E-04 
2.40373057964000E-04 2.46458130897000E-04 2.52697248185000E-04 2.59094309479000E-04 
2.65653313151000E-04 2.72378358791000E-04 2.79273649772000E-04 2.86343495875000E-04 
2.93592315985000E-04 3.01024640849000E-04 3.08645115913000E-04 3.16458504222000E-04 
3.24469689397000E-04 3.32683678690000E-04 3.41105606113000E-04 3.49740735643000E-04 
3.58594464518000E-04 3.67672326607000E-04 3.76979995869000E-04 3.86523289899000E-04 
3.96308173569000E-04 4.06340762747000E-04 4.16627328130000E-04 4.27174299156000E-04 
4.37988268024000E-04 4.49075993817000E-04 4.60444406725000E-04 4.72100612376000E-04 
4.84051896278000E-04 4.96305728373000E-04 5.08869767703000E-04 5.21751867204000E-04 
5.34960078606000E-04 5.48502657472000E-04 5.62388068354000E-04 5.76624990085000E-04 
5.91222321207000E-04 6.06189185525000E-04 6.21534937817000E-04 6.37269169678000E-04 
6.53401715515000E-04 6.69942658694000E-04 6.86902337843000E-04 7.04291353314000E-04 
7.22120573808000E-04 7.40401143167000E-04 7.59144487343000E-04 7.78362321535000E-04 
7.98066657517000E-04 8.18269811138000E-04 8.38984410029000E-04 8.60223401487000E-04 
8.82000060573000E-04 9.04327998409000E-04 9.27221170683000E-04 9.50693886371000E-04 