<UPF version="2.0.1">
  <PP_INFO>
Generated using Vanderbilt code, version   7  3  6
Author: kfg        Generation date:    3    2 2014
Automatically converted from original USPP format to UPF.v1.

Futher converted to UPF.v2 format.
Convert Q_IJ to Q_IJL use the same routine as 'upflib/upf_to_internal.f90' of QE.
The conversion is done by using PseudoPotentialIO.jl package.
Converted by: JYU on 2024-04-30

1        The Pseudo was generated with a Scalar-Relativistic Calculation
1.40000000000E+00    Local Potential cutoff radius
nl pn  l   occ               Rcut            Rcut US             E pseu
5S  5  0  2.00      0.00000000000      1.35000000000     -7.11600450700
5P  5  1  6.00      0.00000000000      1.45000000000     -4.11821172000
5D  5  2  5.50      0.00000000000      1.45000000000     -0.80892285800
6S  6  0  2.00      0.00000000000      1.35000000000     -0.73501603400
6P  6  1  0.00      0.00000000000      1.45000000000     -0.31513664200
</PP_INFO>
  <PP_HEADER element="Os" pseudo_type="US" relativistic="scalar" is_ultrasoft="T" is_paw="F" is_coulomb="F" has_so="F" has_wfc="F" has_gipaw="F" core_correction="T" functional="PBE" z_valence="16.0" total_psenergy="-197.457147682" wfc_cutoff="0.0" rho_cutoff="0.0" l_max="3" mesh_size="983" number_of_wfc="5" number_of_proj="8"/>
  <PP_MESH>
    <PP_R>
0.00000000000000E+00 2.01649862979000E-07 4.06688720177000E-07 6.15173528151000E-07 
8.27162200689000E-07 1.04271362490000E-06 1.26188767755000E-06 1.48474524175000E-06 
1.71134822380000E-06 1.94175957044000E-06 2.17604328629000E-06 2.41426445167000E-06 
2.65648924066000E-06 2.90278493949000E-06 3.15321996520000E-06 3.40786388469000E-06 
3.66678743403000E-06 3.93006253808000E-06 4.19776233051000E-06 4.46996117410000E-06 
4.74673468139000E-06 5.02815973568000E-06 5.31431451241000E-06 5.60527850086000E-06 
5.90113252623000E-06 6.20195877210000E-06 6.50784080324000E-06 6.81886358886000E-06 
7.13511352617000E-06 7.45667846441000E-06 7.78364772925000E-06 8.11611214758000E-06 
8.45416407276000E-06 8.79789741029000E-06 9.14740764385000E-06 9.50279186186000E-06 
9.86414878447000E-06 1.02315787909000E-05 1.06051839474000E-05 1.09850680356000E-05 
1.13713365813000E-05 1.17640968838000E-05 1.21634580457000E-05 1.25695310033000E-05 
1.29824285571000E-05 1.34022654036000E-05 1.38291581669000E-05 1.42632254310000E-05 
1.47045877729000E-05 1.51533677962000E-05 1.56096901648000E-05 1.60736816379000E-05 
1.65454711050000E-05 1.70251896218000E-05 1.75129704465000E-05 1.80089490768000E-05 
1.85132632879000E-05 1.90260531702000E-05 1.95474611687000E-05 2.00776321223000E-05 
2.06167133041000E-05 2.11648544623000E-05 2.17222078620000E-05 2.22889283270000E-05 
2.28651732834000E-05 2.34511028029000E-05 2.40468796476000E-05 2.46526693146000E-05 
2.52686400830000E-05 2.58949630597000E-05 2.65318122272000E-05 2.71793644922000E-05 
2.78377997345000E-05 2.85073008570000E-05 2.91880538366000E-05 2.98802477757000E-05 
3.05840749548000E-05 3.12997308861000E-05 3.20274143673000E-05 3.27673275376000E-05 
3.35196759330000E-05 3.42846685442000E-05 3.50625178739000E-05 3.58534399964000E-05 
3.66576546175000E-05 3.74753851351000E-05 3.83068587021000E-05 3.91523062884000E-05 
4.00119627463000E-05 4.08860668746000E-05 4.17748614857000E-05 4.26785934726000E-05 
4.35975138779000E-05 4.45318779631000E-05 4.54819452799000E-05 4.64479797418000E-05 
4.74302496981000E-05 4.84290280078000E-05 4.94445921158000E-05 5.04772241297000E-05 
5.15272108984000E-05 5.25948440916000E-05 5.36804202810000E-05 5.47842410225000E-05 
5.59066129401000E-05 5.70478478109000E-05 5.82082626520000E-05 5.93881798083000E-05 
6.05879270422000E-05 6.18078376245000E-05 6.30482504270000E-05 6.43095100169000E-05 
6.55919667522000E-05 6.68959768791000E-05 6.82219026311000E-05 6.95701123292000E-05 
7.09409804850000E-05 7.23348879040000E-05 7.37522217915000E-05 7.51933758606000E-05 
7.66587504412000E-05 7.81487525911000E-05 7.96637962094000E-05 8.12043021513000E-05 
8.27706983450000E-05 8.43634199107000E-05 8.59829092812000E-05 8.76296163251000E-05 
8.93039984717000E-05 9.10065208378000E-05 9.27376563573000E-05 9.44978859122000E-05 
9.62876984667000E-05 9.81075912022000E-05 9.99580696563000E-05 1.01839647863000E-04 
1.03752848494000E-04 1.05698203007000E-04 1.07676251791000E-04 1.09687544317000E-04 
1.11732639289000E-04 1.13812104802000E-04 1.15926518501000E-04 1.18076467734000E-04 
1.20262549725000E-04 1.22485371731000E-04 1.24745551219000E-04 1.27043716030000E-04 
1.29380504558000E-04 1.31756565926000E-04 1.34172560167000E-04 1.36629158405000E-04 
1.39127043044000E-04 1.41666907958000E-04 1.44249458681000E-04 1.46875412605000E-04 
1.49545499178000E-04 1.52260460108000E-04 1.55021049568000E-04 1.57828034407000E-04 
1.60682194360000E-04 1.63584322269000E-04 1.66535224298000E-04 1.69535720161000E-04 
1.72586643350000E-04 1.75688841361000E-04 1.78843175937000E-04 1.82050523302000E-04 
1.85311774407000E-04 1.88627835175000E-04 1.91999626756000E-04 1.95428085780000E-04 
1.98914164620000E-04 2.02458831652000E-04 2.06063071529000E-04 2.09727885453000E-04 
2.13454291450000E-04 2.17243324657000E-04 2.21096037608000E-04 2.25013500527000E-04 
2.28996801621000E-04 2.33047047389000E-04 2.37165362926000E-04 2.41352892235000E-04 
2.45610798544000E-04 2.49940264634000E-04 2.54342493161000E-04 2.58818706995000E-04 
2.63370149558000E-04 2.67998085169000E-04 2.72703799394000E-04 2.77488599407000E-04 
2.82353814350000E-04 2.87300795703000E-04 2.92330917659000E-04 2.97445577506000E-04 
3.02646196016000E-04 3.07934217840000E-04 3.13311111905000E-04 3.18778371828000E-04 
3.24337516328000E-04 3.29990089647000E-04 3.35737661981000E-04 3.41581829915000E-04 
3.47524216865000E-04 3.53566473534000E-04 3.59710278365000E-04 3.65957338009000E-04 
3.72309387802000E-04 3.78768192242000E-04 3.85335545484000E-04 3.92013271834000E-04 
3.98803226259000E-04 4.05707294901000E-04 4.12727395603000E-04 4.19865478436000E-04 
4.27123526247000E-04 4.34503555208000E-04 4.42007615374000E-04 4.49637791254000E-04 
4.57396202391000E-04 4.65285003949000E-04 4.73306387312000E-04 4.81462580694000E-04 
4.89755849756000E-04 4.98188498239000E-04 5.06762868598000E-04 5.15481342658000E-04 
5.24346342274000E-04 5.33360330002000E-04 5.42525809786000E-04 5.51845327651000E-04 
5.61321472413000E-04 5.70956876394000E-04 5.80754216158000E-04 5.90716213251000E-04 
6.00845634958000E-04 6.11145295074000E-04 6.21618054679000E-04 6.32266822943000E-04 
6.43094557925000E-04 6.54104267398000E-04 6.65299009686000E-04 6.76681894512000E-04 
6.88256083860000E-04 7.00024792859000E-04 7.11991290669000E-04 7.24158901395000E-04 
7.36531005007000E-04 7.49111038280000E-04 7.61902495748000E-04 7.74908930677000E-04 
7.88133956048000E-04 8.01581245565000E-04 8.15254534673000E-04 8.29157621594000E-04 
8.43294368388000E-04 8.57668702019000E-04 8.72284615450000E-04 8.87146168751000E-04 
9.02257490227000E-04 9.17622777564000E-04 9.33246298997000E-04 9.49132394493000E-04 
9.65285476958000E-04 9.81710033463000E-04 9.98410626492000E-04 1.01539189521000E-03 
1.03265855673000E-03 1.05021540747000E-03 1.06806732445000E-03 1.08621926664000E-03 
1.10467627637000E-03 1.12344348071000E-03 1.14252609288000E-03 1.16192941373000E-03 
1.18165883321000E-03 1.20171983183000E-03 1.22211798221000E-03 1.24285895066000E-03 
1.26394849867000E-03 1.28539248459000E-03 1.30719686523000E-03 1.32936769749000E-03 
1.35191114008000E-03 1.37483345521000E-03 1.39814101035000E-03 1.42184027996000E-03 
1.44593784733000E-03 1.47044040637000E-03 1.49535476351000E-03 1.52068783958000E-03 
1.54644667169000E-03 1.57263841524000E-03 1.59927034589000E-03 1.62634986156000E-03 
1.65388448452000E-03 1.68188186345000E-03 1.71034977558000E-03 1.73929612885000E-03 
1.76872896409000E-03 1.79865645729000E-03 1.82908692183000E-03 1.86002881080000E-03 
1.89149071939000E-03 1.92348138720000E-03 1.95600970075000E-03 1.98908469588000E-03 
2.02271556031000E-03 2.05691163616000E-03 2.09168242255000E-03 2.12703757827000E-03 
2.16298692442000E-03 2.19954044716000E-03 2.23670830047000E-03 2.27450080901000E-03 
2.31292847093000E-03 2.35200196084000E-03 2.39173213273000E-03 2.43213002301000E-03 
2.47320685358000E-03 2.51497403494000E-03 2.55744316934000E-03 2.60062605405000E-03 
2.64453468459000E-03 2.68918125808000E-03 2.73457817664000E-03 2.78073805081000E-03 
2.82767370307000E-03 2.87539817141000E-03 2.92392471293000E-03 2.97326680755000E-03 
3.02343816170000E-03 3.07445271221000E-03 3.12632463012000E-03 3.17906832461000E-03 
3.23269844705000E-03 3.28722989506000E-03 3.34267781659000E-03 3.39905761421000E-03 
3.45638494934000E-03 3.51467574661000E-03 3.57394619827000E-03 3.63421276872000E-03 
3.69549219907000E-03 3.75780151177000E-03 3.82115801537000E-03 3.88557930929000E-03 
3.95108328877000E-03 4.01768814977000E-03 4.08541239407000E-03 4.15427483439000E-03 
4.22429459963000E-03 4.29549114019000E-03 4.36788423332000E-03 4.44149398870000E-03 
4.51634085395000E-03 4.59244562034000E-03 4.66982942858000E-03 4.74851377466000E-03 
4.82852051587000E-03 4.90987187680000E-03 4.99259045558000E-03 5.07669923012000E-03 
5.16222156451000E-03 5.24918121552000E-03 5.33760233915000E-03 5.42750949739000E-03 
5.51892766504000E-03 5.61188223662000E-03 5.70639903344000E-03 5.80250431078000E-03 
5.90022476515000E-03 5.99958754177000E-03 6.10062024204000E-03 6.20335093126000E-03 
6.30780814637000E-03 6.41402090396000E-03 6.52201870823000E-03 6.63183155929000E-03 
6.74348996141000E-03 6.85702493152000E-03 6.97246800785000E-03 7.08985125866000E-03 
7.20920729116000E-03 7.33056926059000E-03 7.45397087936000E-03 7.57944642651000E-03 
7.70703075716000E-03 7.83675931223000E-03 7.96866812825000E-03 8.10279384742000E-03 
8.23917372773000E-03 8.37784565337000E-03 8.51884814521000E-03 8.66222037151000E-03 
8.80800215882000E-03 8.95623400300000E-03 9.10695708054000E-03 9.26021325991000E-03 
9.41604511327000E-03 9.57449592823000E-03 9.73560971995000E-03 9.89943124328000E-03 
1.00660060053000E-02 1.02353802777000E-02 1.04076011101000E-02 1.05827163428000E-02 
1.07607746199000E-02 1.09418254032000E-02 1.11259189859000E-02 1.13131065060000E-02 
1.15034399615000E-02 1.16969722240000E-02 1.18937570536000E-02 1.20938491140000E-02 
1.22973039877000E-02 1.25041781913000E-02 1.27145291910000E-02 1.29284154192000E-02 
1.31458962899000E-02 1.33670322161000E-02 1.35918846256000E-02 1.38205159791000E-02 
1.40529897866000E-02 1.42893706257000E-02 1.45297241593000E-02 1.47741171538000E-02 
1.50226174978000E-02 1.52752942206000E-02 1.55322175118000E-02 1.57934587408000E-02 
1.60590904762000E-02 1.63291865064000E-02 1.66038218596000E-02 1.68830728253000E-02 
1.71670169750000E-02 1.74557331839000E-02 1.77493016528000E-02 1.80478039303000E-02 
1.83513229358000E-02 1.86599429819000E-02 1.89737497985000E-02 1.92928305562000E-02 
1.96172738905000E-02 1.99471699266000E-02 2.02826103045000E-02 2.06236882043000E-02 
2.09704983719000E-02 2.13231371457000E-02 2.16817024833000E-02 2.20462939885000E-02 
2.24170129389000E-02 2.27939623145000E-02 2.31772468258000E-02 2.35669729433000E-02 
2.39632489266000E-02 2.43661848551000E-02 2.47758926579000E-02 2.51924861454000E-02 
2.56160810406000E-02 2.60467950117000E-02 2.64847477040000E-02 2.69300607740000E-02 
2.73828579225000E-02 2.78432649296000E-02 2.83114096889000E-02 2.87874222437000E-02 
2.92714348227000E-02 2.97635818771000E-02 3.02640001175000E-02 3.07728285521000E-02 
3.12902085255000E-02 3.18162837577000E-02 3.23512003841000E-02 3.28951069960000E-02 
3.34481546821000E-02 3.40104970704000E-02 3.45822903706000E-02 3.51636934180000E-02 
3.57548677170000E-02 3.63559774867000E-02 3.69671897057000E-02 3.75886741592000E-02 
3.82206034857000E-02 3.88631532253000E-02 3.95165018682000E-02 4.01808309041000E-02 
4.08563248734000E-02 4.15431714174000E-02 4.22415613314000E-02 4.29516886171000E-02 
4.36737505365000E-02 4.44079476670000E-02 4.51544839572000E-02 4.59135667828000E-02 
4.66854070053000E-02 4.74702190295000E-02 4.82682208639000E-02 4.90796341807000E-02 
4.99046843779000E-02 5.07436006412000E-02 5.15966160084000E-02 5.24639674337000E-02 
5.33458958537000E-02 5.42426462540000E-02 5.51544677378000E-02 5.60816135948000E-02 
5.70243413713000E-02 5.79829129423000E-02 5.89575945838000E-02 5.99486570471000E-02 
6.09563756335000E-02 6.19810302714000E-02 6.30229055937000E-02 6.40822910168000E-02 
6.51594808214000E-02 6.62547742338000E-02 6.73684755091000E-02 6.85008940160000E-02 
6.96523443224000E-02 7.08231462832000E-02 7.20136251284000E-02 7.32241115545000E-02 
7.44549418154000E-02 7.57064578163000E-02 7.69790072086000E-02 7.82729434864000E-02 
7.95886260848000E-02 8.09264204797000E-02 8.22866982891000E-02 8.36698373768000E-02 
8.50762219570000E-02 8.65062427011000E-02 8.79602968462000E-02 8.94387883058000E-02 
9.09421277812000E-02 9.24707328766000E-02 9.40250282143000E-02 9.56054455529000E-02 
9.72124239074000E-02 9.88464096711000E-02 1.00507856739000E-01 1.02197226636000E-01 
1.03914988641000E-01 1.05661619922000E-01 1.07437605666000E-01 1.09243439212000E-01 
1.11079622194000E-01 1.12946664674000E-01 1.14845085286000E-01 1.16775411383000E-01 
1.18738179177000E-01 1.20733933896000E-01 1.22763229928000E-01 1.24826630979000E-01 
1.26924710230000E-01 1.29058050494000E-01 1.31227244380000E-01 1.33432894454000E-01 
1.35675613413000E-01 1.37956024247000E-01 1.40274760419000E-01 1.42632466037000E-01 
1.45029796035000E-01 1.47467416353000E-01 1.49946004123000E-01 1.52466247859000E-01 
1.55028847643000E-01 1.57634515326000E-01 1.60283974720000E-01 1.62977961805000E-01 
1.65717224927000E-01 1.68502525009000E-01 1.71334635765000E-01 1.74214343910000E-01 
1.77142449382000E-01 1.80119765562000E-01 1.83147119501000E-01 1.86225352150000E-01 
1.89355318595000E-01 1.92537888289000E-01 1.95773945301000E-01 1.99064388557000E-01 
2.02410132089000E-01 2.05812105292000E-01 2.09271253181000E-01 2.12788536652000E-01 
2.16364932752000E-01 2.20001434945000E-01 2.23699053396000E-01 2.27458815245000E-01 
2.31281764893000E-01 2.35168964296000E-01 2.39121493256000E-01 2.43140449724000E-01 
2.47226950102000E-01 2.51382129556000E-01 2.55607142329000E-01 2.59903162061000E-01 
2.64271382121000E-01 2.68713015931000E-01 2.73229297305000E-01 2.77821480797000E-01 
2.82490842042000E-01 2.87238678114000E-01 2.92066307888000E-01 2.96975072403000E-01 
3.01966335236000E-01 3.07041482881000E-01 3.12201925135000E-01 3.17449095486000E-01 
3.22784451515000E-01 3.28209475301000E-01 3.33725673828000E-01 3.39334579411000E-01 
3.45037750114000E-01 3.50836770188000E-01 3.56733250509000E-01 3.62728829027000E-01 
3.68825171218000E-01 3.75023970550000E-01 3.81326948952000E-01 3.87735857291000E-01 
3.94252475861000E-01 4.00878614876000E-01 4.07616114972000E-01 4.14466847721000E-01 
4.21432716148000E-01 4.28515655261000E-01 4.35717632589000E-01 4.43040648727000E-01 
4.50486737894000E-01 4.58057968495000E-01 4.65756443700000E-01 4.73584302022000E-01 
4.81543717917000E-01 4.89636902386000E-01 4.97866103587000E-01 5.06233607461000E-01 
5.14741738371000E-01 5.23392859739000E-01 5.32189374712000E-01 5.41133726821000E-01 
5.50228400667000E-01 5.59475922607000E-01 5.68878861455000E-01 5.78439829200000E-01 
5.88161481728000E-01 5.98046519560000E-01 6.08097688604000E-01 6.18317780916000E-01 
6.28709635476000E-01 6.39276138976000E-01 6.50020226626000E-01 6.60944882962000E-01 
6.72053142682000E-01 6.83348091485000E-01 6.94832866929000E-01 7.06510659304000E-01 
7.18384712516000E-01 7.30458324988000E-01 7.42734850581000E-01 7.55217699519000E-01 
7.67910339341000E-01 7.80816295861000E-01 7.93939154150000E-01 8.07282559531000E-01 
8.20850218591000E-01 8.34645900213000E-01 8.48673436617000E-01 8.62936724433000E-01 
8.77439725776000E-01 8.92186469351000E-01 9.07181051571000E-01 9.22427637694000E-01 
9.37930462980000E-01 9.53693833870000E-01 9.69722129179000E-01 9.86019801315000E-01 
1.00259137751000E+00 1.01944146110000E+00 1.03657473275000E+00 1.05399595183000E+00 
1.07170995767000E+00 1.08972167095000E+00 1.10803609503000E+00 1.12665831737000E+00 
1.14559351094000E+00 1.16484693562000E+00 1.18442393972000E+00 1.20432996142000E+00 
1.22457053029000E+00 1.24515126885000E+00 1.26607789411000E+00 1.28735621914000E+00 
1.30899215474000E+00 1.33099171101000E+00 1.35336099910000E+00 1.37610623283000E+00 
1.39923373048000E+00 1.42274991649000E+00 1.44666132329000E+00 1.47097459310000E+00 
1.49569647975000E+00 1.52083385060000E+00 1.54639368840000E+00 1.57238309328000E+00 
1.59880928469000E+00 1.62567960341000E+00 1.65300151357000E+00 1.68078260479000E+00 
1.70903059420000E+00 1.73775332866000E+00 1.76695878688000E+00 1.79665508168000E+00 
1.82685046223000E+00 1.85755331631000E+00 1.88877217270000E+00 1.92051570351000E+00 
1.95279272659000E+00 1.98561220798000E+00 2.01898326441000E+00 2.05291516585000E+00 
2.08741733803000E+00 2.12249936512000E+00 2.15817099234000E+00 2.19444212872000E+00 
2.23132284980000E+00 2.26882340046000E+00 2.30695419777000E+00 2.34572583385000E+00 
2.38514907886000E+00 2.42523488395000E+00 2.46599438432000E+00 2.50743890232000E+00 
2.54957995059000E+00 2.59242923524000E+00 2.63599865912000E+00 2.68030032513000E+00 
2.72534653958000E+00 2.77114981559000E+00 2.81772287659000E+00 2.86507865984000E+00 
2.91323032003000E+00 2.96219123293000E+00 3.01197499911000E+00 3.06259544771000E+00 
3.11406664029000E+00 3.16640287474000E+00 3.21961868924000E+00 3.27372886630000E+00 
3.32874843687000E+00 3.38469268452000E+00 3.44157714969000E+00 3.49941763396000E+00 
3.55823020453000E+00 3.61803119859000E+00 3.67883722791000E+00 3.74066518345000E+00 
3.80353224003000E+00 3.86745586114000E+00 3.93245380375000E+00 3.99854412326000E+00 
4.06574517850000E+00 4.13407563689000E+00 4.20355447954000E+00 4.27420100657000E+00 
4.34603484247000E+00 4.41907594155000E+00 4.49334459348000E+00 4.56886142890000E+00 
4.64564742522000E+00 4.72372391235000E+00 4.80311257873000E+00 4.88383547726000E+00 
4.96591503149000E+00 5.04937404183000E+00 5.13423569187000E+00 5.22052355484000E+00 
5.30826160014000E+00 5.39747420002000E+00 5.48818613633000E+00 5.58042260741000E+00 
5.67420923509000E+00 5.76957207183000E+00 5.86653760790000E+00 5.96513277881000E+00 
6.06538497274000E+00 6.16732203816000E+00 6.27097229159000E+00 6.37636452541000E+00 
6.48352801594000E+00 6.59249253149000E+00 6.70328834070000E+00 6.81594622087000E+00 
6.93049746661000E+00 7.04697389842000E+00 7.16540787163000E+00 7.28583228532000E+00 
7.40828059150000E+00 7.53278680436000E+00 7.65938550978000E+00 7.78811187486000E+00 
7.91900165776000E+00 8.05209121760000E+00 8.18741752456000E+00 8.32501817014000E+00 
8.46493137762000E+00 8.60719601270000E+00 8.75185159424000E+00 8.89893830528000E+00 
9.04849700417000E+00 9.20056923597000E+00 9.35519724394000E+00 9.51242398130000E+00 
9.67229312316000E+00 9.83484907863000E+00 1.00001370032000E+01 1.01682028112000E+01 
1.03390931888000E+01 1.05128556064000E+01 1.06895383327000E+01 1.08691904473000E+01 
1.10518618546000E+01 1.12376032979000E+01 1.14264663734000E+01 1.16185035440000E+01 
1.18137681548000E+01 1.20123144472000E+01 1.22141975742000E+01 1.24194736157000E+01 
1.26281995941000E+01 1.28404334903000E+01 1.30562342595000E+01 1.32756618477000E+01 
1.34987772085000E+01 1.37256423197000E+01 1.39563202010000E+01 1.41908749309000E+01 
1.44293716651000E+01 1.46718766542000E+01 1.49184572623000E+01 1.51691819855000E+01 
1.54241204713000E+01 1.56833435375000E+01 1.59469231922000E+01 1.62149326537000E+01 
1.64874463707000E+01 1.67645400433000E+01 1.70462906437000E+01 1.73327764378000E+01 
1.76240770067000E+01 1.79202732693000E+01 1.82214475041000E+01 1.85276833727000E+01 
1.88390659424000E+01 1.91556817104000E+01 1.94776186277000E+01 1.98049661231000E+01 
2.01378151287000E+01 2.04762581047000E+01 2.08203890651000E+01 2.11703036042000E+01 
2.15260989226000E+01 2.18878738546000E+01 2.22557288957000E+01 2.26297662302000E+01 
2.30100897597000E+01 2.33968051320000E+01 2.37900197707000E+01 2.41898429045000E+01 
2.45963855980000E+01 2.50097607823000E+01 2.54300832866000E+01 2.58574698697000E+01 
2.62920392529000E+01 2.67339121528000E+01 2.71832113146000E+01 2.76400615466000E+01 
2.81045897545000E+01 2.85769249769000E+01 2.90571984211000E+01 2.95455434995000E+01 
3.00420958667000E+01 3.05469934570000E+01 3.10603765230000E+01 3.15823876744000E+01 
3.21131719177000E+01 3.26528766963000E+01 3.32016519318000E+01 3.37596500652000E+01 
3.43270260995000E+01 3.49039376430000E+01 3.54905449525000E+01 3.60870109782000E+01 
3.66935014090000E+01 3.73101847183000E+01 3.79372322111000E+01 3.85748180713000E+01 
3.92231194100000E+01 3.98823163152000E+01 4.05525919014000E+01 4.12341323606000E+01 
4.19271270139000E+01 4.26317683643000E+01 4.33482521500000E+01 4.40767773990000E+01 
4.48175464840000E+01 4.55707651789000E+01 4.63366427161000E+01 4.71153918442000E+01 
4.79072288875000E+01 4.87123738057000E+01 4.95310502555000E+01 5.03634856521000E+01 
5.12099112330000E+01 5.20705621219000E+01 5.29456773940000E+01 5.38355001424000E+01 
5.47402775460000E+01 5.56602609375000E+01 5.65957058738000E+01 5.75468722068000E+01 
5.85140241555000E+01 5.94974303793000E+01 6.04973640531000E+01 6.15141029425000E+01 
6.25479294816000E+01 6.35991308511000E+01 6.46679990581000E+01 6.57548310174000E+01 
6.68599286336000E+01 6.79835988854000E+01 6.91261539108000E+01 7.02879110934000E+01 
7.14691931511000E+01 7.26703282253000E+01 7.38916499723000E+01 7.51334976562000E+01 
7.63962162425000E+01 7.76801564946000E+01 7.89856750708000E+01 8.03131346234000E+01 
8.16629038999000E+01 8.30353578448000E+01 8.44308777042000E+01 8.58498511313000E+01 
8.72926722947000E+01 8.87597419872000E+01 9.02514677377000E+01 9.17682639240000E+01 
9.33105518881000E+01 9.48787600533000E+01 9.64733240431000E+01 9.80946868021000E+01 
9.97432987192000E+01 1.01419617753000E+02 1.03124109558000E+02 1.04857247616000E+02 
1.06619513364000E+02 1.08411396333000E+02 1.10233394279000E+02 1.12086013325000E+02 
1.13969768098000E+02 1.15885181876000E+02 1.17832786732000E+02 1.19813123677000E+02 
1.21826742820000E+02 1.23874203512000E+02 1.25956074504000E+02 1.28072934108000E+02 
1.30225370353000E+02 1.32413981154000E+02 1.34639374471000E+02 1.36902168483000E+02 
1.39202991758000E+02 1.41542483430000E+02 1.43921293372000E+02 1.46340082380000E+02 
1.48799522355000E+02 1.51300296490000E+02 1.53843099462000E+02 
</PP_R>
    <PP_RAB>
1.99974115253000E-07 2.03334946303000E-07 2.06752260589000E-07 2.10227007389000E-07 
2.13760151931000E-07 2.17352675668000E-07 2.21005576546000E-07 2.24719869282000E-07 
2.28496585650000E-07 2.32336774760000E-07 2.36241503358000E-07 2.40211856114000E-07 
2.44248935931000E-07 2.48353864245000E-07 2.52527781340000E-07 2.56771846665000E-07 
2.61087239154000E-07 2.65475157555000E-07 2.69936820762000E-07 2.74473468155000E-07 
2.79086359943000E-07 2.83776777514000E-07 2.88546023793000E-07 2.93395423601000E-07 
2.98326324024000E-07 3.03340094788000E-07 3.08438128641000E-07 3.13621841734000E-07 
3.18892674023000E-07 3.24252089660000E-07 3.29701577407000E-07 3.35242651046000E-07 
3.40876849799000E-07 3.46605738758000E-07 3.52430909317000E-07 3.58353979618000E-07 
3.64376594994000E-07 3.70500428435000E-07 3.76727181043000E-07 3.83058582513000E-07 
3.89496391608000E-07 3.96042396650000E-07 4.02698416015000E-07 4.09466298641000E-07 
4.16347924538000E-07 4.23345205313000E-07 4.30460084701000E-07 4.37694539103000E-07 
4.45050578135000E-07 4.52530245190000E-07 4.60135618000000E-07 4.67868809219000E-07 
4.75731967004000E-07 4.83727275617000E-07 4.91856956028000E-07 5.00123266533000E-07 
5.08528503385000E-07 5.17075001423000E-07 5.25765134732000E-07 5.34601317292000E-07 
5.43586003655000E-07 5.52721689626000E-07 5.62010912953000E-07 5.71456254037000E-07 
5.81060336644000E-07 5.90825828636000E-07 6.00755442712000E-07 6.10851937164000E-07 
6.21118116637000E-07 6.31556832914000E-07 6.42170985706000E-07 6.52963523456000E-07 
6.63937444161000E-07 6.75095796204000E-07 6.86441679197000E-07 6.97978244849000E-07 
7.09708697834000E-07 7.21636296688000E-07 7.33764354709000E-07 7.46096240880000E-07 
7.58635380804000E-07 7.71385257656000E-07 7.84349413151000E-07 7.97531448527000E-07 
8.10935025545000E-07 8.24563867506000E-07 8.38421760287000E-07 8.52512553394000E-07 
8.66840161025000E-07 8.81408563163000E-07 8.96221806681000E-07 9.11284006463000E-07 
9.26599346551000E-07 9.42172081305000E-07 9.58006536584000E-07 9.74107110951000E-07 
9.90478276889000E-07 1.00712458205000E-06 1.02405065052000E-06 1.04126118408000E-06 
1.05876096356000E-06 1.07655485011000E-06 1.09464778660000E-06 1.11304479896000E-06 
1.13175099759000E-06 1.15077157877000E-06 1.17011182612000E-06 1.18977711206000E-06 
1.20977289929000E-06 1.23010474233000E-06 1.25077828904000E-06 1.27179928220000E-06 
1.29317356112000E-06 1.31490706324000E-06 1.33700582577000E-06 1.35947598741000E-06 
1.38232379000000E-06 1.40555558032000E-06 1.42917781178000E-06 1.45319704626000E-06 
1.47761995594000E-06 1.50245332510000E-06 1.52770405208000E-06 1.55337915111000E-06 
1.57948575434000E-06 1.60603111376000E-06 1.63302260327000E-06 1.66046772067000E-06 
1.68837408978000E-06 1.71674946255000E-06 1.74560172121000E-06 1.77493888046000E-06 
1.80476908970000E-06 1.83510063529000E-06 1.86594194286000E-06 1.89730157963000E-06 
1.92918825682000E-06 1.96161083204000E-06 1.99457831178000E-06 2.02809985386000E-06 
2.06218477006000E-06 2.09684252863000E-06 2.13208275693000E-06 2.16791524416000E-06 
2.20434994400000E-06 2.24139697744000E-06 2.27906663557000E-06 2.31736938242000E-06 
2.35631585789000E-06 2.39591688069000E-06 2.43618345137000E-06 2.47712675533000E-06 
2.51875816599000E-06 2.56108924789000E-06 2.60413175994000E-06 2.64789765867000E-06 
2.69239910155000E-06 2.73764845038000E-06 2.78365827472000E-06 2.83044135537000E-06 
2.87801068793000E-06 2.92637948640000E-06 2.97556118689000E-06 3.02556945128000E-06 
3.07641817108000E-06 3.12812147127000E-06 3.18069371421000E-06 3.23414950362000E-06 
3.28850368870000E-06 3.34377136817000E-06 3.39996789452000E-06 3.45710887826000E-06 
3.51521019225000E-06 3.57428797611000E-06 3.63435864074000E-06 3.69543887280000E-06 
3.75754563941000E-06 3.82069619287000E-06 3.88490807539000E-06 3.95019912403000E-06 
4.01658747560000E-06 4.08409157174000E-06 4.15273016402000E-06 4.22252231916000E-06 
4.29348742432000E-06 4.36564519249000E-06 4.43901566794000E-06 4.51361923184000E-06 
4.58947660789000E-06 4.66660886807000E-06 4.74503743849000E-06 4.82478410537000E-06 
4.90587102109000E-06 4.98832071030000E-06 5.07215607623000E-06 5.15740040702000E-06 
5.24407738219000E-06 5.33221107925000E-06 5.42182598034000E-06 5.51294697906000E-06 
5.60559938739000E-06 5.69980894271000E-06 5.79560181494000E-06 5.89300461383000E-06 
5.99204439634000E-06 6.09274867415000E-06 6.19514542133000E-06 6.29926308207000E-06 
6.40513057862000E-06 6.51277731929000E-06 6.62223320665000E-06 6.73352864581000E-06 
6.84669455290000E-06 6.96176236361000E-06 7.07876404196000E-06 7.19773208918000E-06 
7.31869955270000E-06 7.44170003538000E-06 7.56676770481000E-06 7.69393730282000E-06 
7.82324415510000E-06 7.95472418106000E-06 8.08841390378000E-06 8.22435046015000E-06 
8.36257161119000E-06 8.50311575257000E-06 8.64602192522000E-06 8.79132982622000E-06 
8.93907981982000E-06 9.08931294862000E-06 9.24207094502000E-06 9.39739624277000E-06 
9.55533198880000E-06 9.71592205515000E-06 9.87921105122000E-06 1.00452443361000E-05 
1.02140680312000E-05 1.03857290331000E-05 1.05602750266000E-05 1.07377544976000E-05 
1.09182167473000E-05 1.11017119052000E-05 1.12882909434000E-05 1.14780056904000E-05 
1.16709088463000E-05 1.18670539962000E-05 1.20664956264000E-05 1.22692891385000E-05 
1.24754908654000E-05 1.26851580866000E-05 1.28983490444000E-05 1.31151229599000E-05 
1.33355400494000E-05 1.35596615413000E-05 1.37875496931000E-05 1.40192678085000E-05 
1.42548802551000E-05 1.44944524822000E-05 1.47380510394000E-05 1.49857435944000E-05 
1.52375989524000E-05 1.54936870747000E-05 1.57540790985000E-05 1.60188473568000E-05 
1.62880653979000E-05 1.65618080063000E-05 1.68401512235000E-05 1.71231723687000E-05 
1.74109500608000E-05 1.77035642398000E-05 1.80010961895000E-05 1.83036285593000E-05 
1.86112453882000E-05 1.89240321271000E-05 1.92420756632000E-05 1.95654643441000E-05 
1.98942880021000E-05 2.02286379790000E-05 2.05686071522000E-05 2.09142899596000E-05 
2.12657824264000E-05 2.16231821918000E-05 2.19865885357000E-05 2.23561024067000E-05 
2.27318264499000E-05 2.31138650355000E-05 2.35023242878000E-05 2.38973121146000E-05 
2.42989382374000E-05 2.47073142214000E-05 2.51225535072000E-05 2.55447714416000E-05 
2.59740853100000E-05 2.64106143692000E-05 2.68544798800000E-05 2.73058051413000E-05 
2.77647155239000E-05 2.82313385061000E-05 2.87058037083000E-05 2.91882429294000E-05 
2.96787901835000E-05 3.01775817368000E-05 3.06847561457000E-05 3.12004542953000E-05 
3.17248194384000E-05 3.22579972353000E-05 3.28001357944000E-05 3.33513857133000E-05 
3.39119001205000E-05 3.44818347179000E-05 3.50613478245000E-05 3.56506004198000E-05 
3.62497561889000E-05 3.68589815679000E-05 3.74784457898000E-05 3.81083209321000E-05 
3.87487819642000E-05 3.94000067959000E-05 4.00621763274000E-05 4.07354744987000E-05 
4.14200883416000E-05 4.21162080309000E-05 4.28240269377000E-05 4.35437416828000E-05 
4.42755521918000E-05 4.50196617500000E-05 4.57762770592000E-05 4.65456082953000E-05 
4.73278691664000E-05 4.81232769721000E-05 4.89320526641000E-05 4.97544209077000E-05 
5.05906101436000E-05 5.14408526521000E-05 5.23053846172000E-05 5.31844461920000E-05 
5.40782815661000E-05 5.49871390329000E-05 5.59112710584000E-05 5.68509343522000E-05 
5.78063899377000E-05 5.87779032254000E-05 5.97657440864000E-05 6.07701869273000E-05 
6.17915107664000E-05 6.28299993114000E-05 6.38859410380000E-05 6.49596292702000E-05 
6.60513622614000E-05 6.71614432781000E-05 6.82901806830000E-05 6.94378880217000E-05 
7.06048841091000E-05 7.17914931184000E-05 7.29980446706000E-05 7.42248739269000E-05 
7.54723216810000E-05 7.67407344542000E-05 7.80304645915000E-05 7.93418703596000E-05 
8.06753160464000E-05 8.20311720619000E-05 8.34098150415000E-05 8.48116279505000E-05 