<UPF version="2.0.1">
  <PP_INFO>
Generated using Vanderbilt code, version   7  3  6
Author: kfg        Generation date:   13    5 2013
Automatically converted from original USPP format to UPF.v1.

Futher converted to UPF.v2 format.
Convert Q_IJ to Q_IJL use the same routine as 'upflib/upf_to_internal.f90' of QE.
The conversion is done by using PseudoPotentialIO.jl package.
Converted by: JYU on 2024-04-30

1        The Pseudo was generated with a Scalar-Relativistic Calculation
2.30000000000E+00    Local Potential cutoff radius
nl pn  l   occ               Rcut            Rcut US             E pseu
5D  5  2 10.00      0.00000000000      2.10000000000     -1.55651300800
6S  6  0  2.00      0.00000000000      2.30000000000     -0.88493258700
6P  6  1  2.00      0.00000000000      2.30000000000     -0.25708070400
</PP_INFO>
  <PP_HEADER element="Pb" pseudo_type="US" relativistic="scalar" is_ultrasoft="T" is_paw="F" is_coulomb="F" has_so="F" has_wfc="F" has_gipaw="F" core_correction="T" functional="PBE" z_valence="14.0" total_psenergy="-163.896377063" wfc_cutoff="0.0" rho_cutoff="0.0" l_max="2" mesh_size="899" number_of_wfc="3" number_of_proj="6"/>
  <PP_MESH>
    <PP_R>
0.00000000000000E+00 6.97811114178000E-10 1.41328740082000E-09 2.14687605588000E-09 
2.89903559617000E-09 3.67023614587000E-09 4.46095973043000E-09 5.27170057784000E-09 
6.10296542751000E-09 6.95527384705000E-09 7.82915855694000E-09 8.72516576360000E-09 
9.64385550068000E-09 1.05858019792000E-08 1.15515939463000E-08 1.25418350535000E-08 
1.35571442336000E-08 1.45981560881000E-08 1.56655212830000E-08 1.67599069566000E-08 
1.78819971353000E-08 1.90324931622000E-08 2.02121141347000E-08 2.14215973542000E-08 
2.26616987873000E-08 2.39331935375000E-08 2.52368763306000E-08 2.65735620108000E-08 
2.79440860500000E-08 2.93493050705000E-08 3.07900973799000E-08 3.22673635202000E-08 
3.37820268309000E-08 3.53350340258000E-08 3.69273557851000E-08 3.85599873616000E-08 
4.02339492033000E-08 4.19502875907000E-08 4.37100752913000E-08 4.55144122296000E-08 
4.73644261750000E-08 4.92612734463000E-08 5.12061396350000E-08 5.32002403456000E-08 
5.52448219561000E-08 5.73411623964000E-08 5.94905719477000E-08 6.16943940608000E-08 
6.39540061963000E-08 6.62708206853000E-08 6.86462856124000E-08 7.10818857204000E-08 
7.35791433387000E-08 7.61396193346000E-08 7.87649140889000E-08 8.14566684964000E-08 
8.42165649911000E-08 8.70463285981000E-08 8.99477280120000E-08 9.29225767017000E-08 
9.59727340445000E-08 9.91001064881000E-08 1.02306648742000E-07 1.05594365000000E-07 
1.08965310190000E-07 1.12421591265000E-07 1.15965368512000E-07 1.19598856906000E-07 
1.23324327498000E-07 1.27144108826000E-07 1.31060588379000E-07 1.35076214084000E-07 
1.39193495838000E-07 1.43415007075000E-07 1.47743386379000E-07 1.52181339126000E-07 
1.56731639181000E-07 1.61397130631000E-07 1.66180729560000E-07 1.71085425872000E-07 
1.76114285162000E-07 1.81270450631000E-07 1.86557145050000E-07 1.91977672776000E-07 
1.97535421815000E-07 2.03233865940000E-07 2.09076566865000E-07 2.15067176468000E-07 
2.21209439075000E-07 2.27507193801000E-07 2.33964376946000E-07 2.40585024461000E-07 
2.47373274466000E-07 2.54333369838000E-07 2.61469660863000E-07 2.68786607955000E-07 
2.76288784445000E-07 2.83980879437000E-07 2.91867700741000E-07 2.99954177877000E-07 
3.08245365156000E-07 3.16746444840000E-07 3.25462730381000E-07 3.34399669741000E-07 
3.43562848798000E-07 3.52957994837000E-07 3.62590980131000E-07 3.72467825608000E-07 
3.82594704619000E-07 3.92977946792000E-07 4.03624041993000E-07 4.14539644377000E-07 
4.25731576551000E-07 4.37206833836000E-07 4.48972588643000E-07 4.61036194951000E-07 
4.73405192906000E-07 4.86087313536000E-07 4.99090483578000E-07 5.12422830436000E-07 
5.26092687262000E-07 5.40108598161000E-07 5.54479323534000E-07 5.69213845552000E-07 
5.84321373771000E-07 5.99811350887000E-07 6.15693458641000E-07 6.31977623866000E-07 
6.48674024698000E-07 6.65793096928000E-07 6.83345540535000E-07 7.01342326368000E-07 
7.19794703003000E-07 7.38714203776000E-07 7.58112653992000E-07 7.78002178313000E-07 
7.98395208340000E-07 8.19304490379000E-07 8.40743093414000E-07 8.62724417268000E-07 
8.85262200984000E-07 9.08370531412000E-07 9.32063852010000E-07 9.56356971874000E-07 
9.81265074996000E-07 1.00680372975000E-06 1.03298889863000E-06 1.05983694821000E-06 
1.08736465940000E-06 1.11558923793000E-06 1.14452832505000E-06 1.17420000866000E-06 
1.20462283451000E-06 1.23581581787000E-06 1.26779845536000E-06 1.30059073717000E-06 
1.33421315955000E-06 1.36868673760000E-06 1.40403301844000E-06 1.44027409464000E-06 
1.47743261805000E-06 1.51553181395000E-06 1.55459549559000E-06 1.59464807905000E-06 
1.63571459848000E-06 1.67782072179000E-06 1.72099276670000E-06 1.76525771712000E-06 
1.81064324010000E-06 1.85717770307000E-06 1.90489019157000E-06 1.95381052747000E-06 
2.00396928757000E-06 2.05539782273000E-06 2.10812827745000E-06 2.16219360999000E-06 
2.21762761293000E-06 2.27446493435000E-06 2.33274109940000E-06 2.39249253260000E-06 
2.45375658053000E-06 2.51657153522000E-06 2.58097665806000E-06 2.64701220434000E-06 
2.71471944844000E-06 2.78414070958000E-06 2.85531937831000E-06 2.92829994362000E-06 
3.00312802074000E-06 3.07985037965000E-06 3.15851497433000E-06 3.23917097269000E-06 
3.32186878738000E-06 3.40666010721000E-06 3.49359792953000E-06 3.58273659329000E-06 
3.67413181307000E-06 3.76784071386000E-06 3.86392186676000E-06 3.96243532563000E-06 
4.06344266458000E-06 4.16700701649000E-06 4.27319311245000E-06 4.38206732223000E-06 
4.49369769576000E-06 4.60815400564000E-06 4.72550779080000E-06 4.84583240118000E-06 
4.96920304357000E-06 5.09569682864000E-06 5.22539281913000E-06 5.35837207925000E-06 
5.49471772536000E-06 5.63451497794000E-06 5.77785121482000E-06 5.92481602581000E-06 
6.07550126870000E-06 6.23000112668000E-06 6.38841216718000E-06 6.55083340227000E-06 
6.71736635050000E-06 6.88811510038000E-06 7.06318637545000E-06 7.24268960094000E-06 
7.42673697223000E-06 7.61544352490000E-06 7.80892720669000E-06 8.00730895121000E-06 
8.21071275350000E-06 8.41926574756000E-06 8.63309828580000E-06 8.85234402052000E-06 
9.07713998744000E-06 9.30762669135000E-06 9.54394819395000E-06 9.78625220387000E-06 
1.00346901690000E-05 1.02894173712000E-05 1.05505930232000E-05 1.08183803683000E-05 
1.10929467823000E-05 1.13744638782000E-05 1.16631076133000E-05 1.19590583993000E-05 
1.22625012151000E-05 1.25736257224000E-05 1.28926263842000E-05 1.32197025861000E-05 
1.35550587614000E-05 1.38989045188000E-05 1.42514547730000E-05 1.46129298793000E-05 
1.49835557715000E-05 1.53635641029000E-05 1.57531923910000E-05 1.61526841661000E-05 
1.65622891237000E-05 1.69822632801000E-05 1.74128691329000E-05 1.78543758248000E-05 
1.83070593118000E-05 1.87712025359000E-05 1.92470956016000E-05 1.97350359576000E-05 
2.02353285825000E-05 2.07482861756000E-05 2.12742293519000E-05 2.18134868431000E-05 
2.23663957027000E-05 2.29333015167000E-05 2.35145586198000E-05 2.41105303164000E-05 
2.47215891084000E-05 2.53481169273000E-05 2.59905053735000E-05 2.66491559607000E-05 
2.73244803668000E-05 2.80169006917000E-05 2.87268497205000E-05 2.94547711946000E-05 
3.02011200885000E-05 3.09663628947000E-05 3.17509779147000E-05 3.25554555584000E-05 
3.33802986507000E-05 3.42260227453000E-05 3.50931564473000E-05 3.59822417435000E-05 
3.68938343411000E-05 3.78285040152000E-05 3.87868349647000E-05 3.97694261777000E-05 
4.07768918057000E-05 4.18098615474000E-05 4.28689810427000E-05 4.39549122757000E-05 
4.50683339887000E-05 4.62099421066000E-05 4.73804501716000E-05 4.85805897893000E-05 
4.98111110861000E-05 5.10727831778000E-05 5.23663946506000E-05 5.36927540537000E-05 
5.50526904049000E-05 5.64470537089000E-05 5.78767154879000E-05 5.93425693271000E-05 
6.08455314330000E-05 6.23865412057000E-05 6.39665618265000E-05 6.55865808598000E-05 
6.72476108702000E-05 6.89506900554000E-05 7.06968828956000E-05 7.24872808179000E-05 
7.43230028794000E-05 7.62051964661000E-05 7.81350380104000E-05 8.01137337259000E-05 
8.21425203619000E-05 8.42226659762000E-05 8.63554707274000E-05 8.85422676879000E-05 
9.07844236770000E-05 9.30833401153000E-05 9.54404539002000E-05 9.78572383047000E-05 
1.00335203898000E-04 1.02875899488000E-04 1.05480913094000E-04 1.08151872933000E-04 
1.10890448443000E-04 1.13698351321000E-04 1.16577336599000E-04 1.19529203737000E-04 
1.22555797747000E-04 1.25659010349000E-04 1.28840781152000E-04 1.32103098866000E-04 
1.35448002547000E-04 1.38877582867000E-04 1.42393983427000E-04 1.45999402090000E-04 
1.49696092362000E-04 1.53486364793000E-04 1.57372588428000E-04 1.61357192282000E-04 
1.65442666863000E-04 1.69631565726000E-04 1.73926507068000E-04 1.78330175368000E-04 
1.82845323062000E-04 1.87474772264000E-04 1.92221416530000E-04 1.97088222668000E-04 
2.02078232590000E-04 2.07194565214000E-04 2.12440418416000E-04 2.17819071023000E-04 
2.23333884870000E-04 2.28988306894000E-04 2.34785871292000E-04 2.40730201733000E-04 
2.46825013615000E-04 2.53074116394000E-04 2.59481415963000E-04 2.66050917093000E-04 
2.72786725936000E-04 2.79693052592000E-04 2.86774213739000E-04 2.94034635334000E-04 
3.01478855377000E-04 3.09111526748000E-04 3.16937420114000E-04 3.24961426914000E-04 
3.33188562413000E-04 3.41623968839000E-04 3.50272918596000E-04 3.59140817557000E-04 
3.68233208450000E-04 3.77555774314000E-04 3.87114342057000E-04 3.96914886094000E-04 
4.06963532084000E-04 4.17266560759000E-04 4.27830411847000E-04 4.38661688098000E-04 
4.49767159413000E-04 4.61153767072000E-04 4.72828628077000E-04 4.84799039595000E-04 
4.97072483524000E-04 5.09656631165000E-04 5.22559348020000E-04 5.35788698707000E-04 
5.49352952002000E-04 5.63260586003000E-04 5.77520293436000E-04 5.92140987081000E-04 
6.07131805347000E-04 6.22502117985000E-04 6.38261531939000E-04 6.54419897358000E-04 
6.70987313744000E-04 6.87974136273000E-04 7.05390982261000E-04 7.23248737805000E-04 
7.41558564583000E-04 7.60331906833000E-04 7.79580498504000E-04 7.99316370593000E-04 
8.19551858663000E-04 8.40299610552000E-04 8.61572594281000E-04 8.83384106157000E-04 
9.05747779084000E-04 9.28677591088000E-04 9.52187874046000E-04 9.76293322650000E-04 
1.00100900359000E-03 1.02635036497000E-03 1.05233324598000E-03 1.07897388674000E-03 
1.10628893854000E-03 1.13429547416000E-03 1.16301099861000E-03 1.19245346002000E-03 
1.22264126090000E-03 1.25359326958000E-03 1.28532883210000E-03 1.31786778421000E-03 
1.35123046382000E-03 1.38543772368000E-03 1.42051094444000E-03 1.45647204802000E-03 
1.49334351126000E-03 1.53114838005000E-03 1.56991028364000E-03 1.60965344949000E-03 
1.65040271838000E-03 1.69218355992000E-03 1.73502208850000E-03 1.77894507960000E-03 
1.82397998650000E-03 1.87015495751000E-03 1.91749885347000E-03 1.96604126586000E-03 
2.01581253527000E-03 2.06684377037000E-03 2.11916686733000E-03 2.17281452980000E-03 
2.22782028931000E-03 2.28421852625000E-03 2.34204449136000E-03 2.40133432774000E-03 
2.46212509348000E-03 2.52445478478000E-03 2.58836235972000E-03 2.65388776263000E-03 
2.72107194901000E-03 2.78995691117000E-03 2.86058570444000E-03 2.93300247413000E-03 
3.00725248308000E-03 3.08338213994000E-03 3.16143902825000E-03 3.24147193609000E-03 
3.32353088664000E-03 3.40766716941000E-03 3.49393337233000E-03 3.58238341456000E-03 
3.67307258028000E-03 3.76605755315000E-03 3.86139645182000E-03 3.95914886621000E-03 
4.05937589474000E-03 4.16214018258000E-03 4.26750596075000E-03 4.37553908630000E-03 
4.48630708344000E-03 4.59987918578000E-03 4.71632637957000E-03 4.83572144812000E-03 
4.95813901721000E-03 5.08365560182000E-03 5.21234965389000E-03 5.34430161141000E-03 
5.47959394863000E-03 5.61831122768000E-03 5.76054015136000E-03 5.90636961739000E-03 
6.05589077393000E-03 6.20919707656000E-03 6.36638434673000E-03 6.52755083158000E-03 
6.69279726542000E-03 6.86222693265000E-03 7.03594573233000E-03 7.21406224436000E-03 
7.39668779736000E-03 7.58393653824000E-03 7.77592550357000E-03 7.97277469269000E-03 
8.17460714276000E-03 8.38154900563000E-03 8.59372962670000E-03 8.81128162576000E-03 
9.03434097991000E-03 9.26304710848000E-03 9.49754296027000E-03 9.73797510280000E-03 
9.98449381401000E-03 1.02372531761000E-02 1.04964111719000E-02 1.07621297836000E-02 
1.10345750940000E-02 1.13139173902000E-02 1.16003312704000E-02 1.18939957524000E-02 
1.21950943862000E-02 1.25038153682000E-02 1.28203516591000E-02 1.31449011043000E-02 
1.34776665579000E-02 1.38188560090000E-02 1.41686827122000E-02 1.45273653205000E-02 
1.48951280223000E-02 1.52722006812000E-02 1.56588189800000E-02 1.60552245675000E-02 
1.64616652103000E-02 1.68783949470000E-02 1.73056742471000E-02 1.77437701743000E-02 
1.81929565526000E-02 1.86535141382000E-02 1.91257307946000E-02 1.96099016726000E-02 
2.01063293948000E-02 2.06153242445000E-02 2.11372043602000E-02 2.16722959340000E-02 
2.22209334154000E-02 2.27834597208000E-02 2.33602264474000E-02 2.39515940932000E-02 
2.45579322822000E-02 2.51796199956000E-02 2.58170458083000E-02 2.64706081324000E-02 
2.71407154654000E-02 2.78277866463000E-02 2.85322511170000E-02 2.92545491907000E-02 
2.99951323272000E-02 3.07544634150000E-02 3.15330170608000E-02 3.23312798860000E-02 
3.31497508308000E-02 3.39889414663000E-02 3.48493763138000E-02 3.57315931732000E-02 
3.66361434587000E-02 3.75635925438000E-02 3.85145201142000E-02 3.94895205306000E-02 
4.04892032001000E-02 4.15141929568000E-02 4.25651304528000E-02 4.36426725582000E-02 
4.47474927718000E-02 4.58802816423000E-02 4.70417471996000E-02 4.82326153975000E-02 
4.94536305673000E-02 5.07055558833000E-02 5.19891738395000E-02 5.33052867390000E-02 
5.46547171952000E-02 5.60383086461000E-02 5.74569258812000E-02 5.89114555827000E-02 
6.04028068789000E-02 6.19319119128000E-02 6.34997264250000E-02 6.51072303505000E-02 
6.67554284317000E-02 6.84453508459000E-02 7.01780538497000E-02 7.19546204389000E-02 
7.37761610254000E-02 7.56438141314000E-02 7.75587471009000E-02 7.95221568293000E-02 
8.15352705116000E-02 8.35993464094000E-02 8.57156746373000E-02 8.78855779694000E-02 
9.01104126659000E-02 9.23915693208000E-02 9.47304737314000E-02 9.71285877891000E-02 
9.95874103931000E-02 1.02108478388000E-01 1.04693367523000E-01 1.07343693437000E-01 
1.10061112672000E-01 1.12847323702000E-01 1.15704068000000E-01 1.18633131125000E-01 
1.21636343835000E-01 1.24715583237000E-01 1.27872773956000E-01 1.31109889338000E-01 
1.34428952687000E-01 1.37832038524000E-01 1.41321273889000E-01 1.44898839668000E-01 
1.48566971956000E-01 1.52327963455000E-01 1.56184164907000E-01 1.60137986563000E-01 
1.64191899691000E-01 1.68348438119000E-01 1.72610199818000E-01 1.76979848528000E-01 
1.81460115421000E-01 1.86053800811000E-01 1.90763775901000E-01 1.95592984577000E-01 
2.00544445253000E-01 2.05621252753000E-01 2.10826580247000E-01 2.16163681233000E-01 
2.21635891575000E-01 2.27246631580000E-01 2.32999408145000E-01 2.38897816942000E-01 
2.44945544669000E-01 2.51146371352000E-01 2.57504172710000E-01 2.64022922575000E-01 
2.70706695379000E-01 2.77559668698000E-01 2.84586125861000E-01 2.91790458635000E-01 
2.99177169961000E-01 3.06750876774000E-01 3.14516312889000E-01 3.22478331954000E-01 
3.30641910492000E-01 3.39012151004000E-01 3.47594285164000E-01 3.56393677084000E-01 
3.65415826672000E-01 3.74666373063000E-01 3.84151098151000E-01 3.93875930199000E-01 
4.03846947541000E-01 4.14070382389000E-01 4.24552624723000E-01 4.35300226284000E-01 
4.46319904675000E-01 4.57618547552000E-01 4.69203216935000E-01 4.81081153620000E-01 
4.93259781704000E-01 5.05746713226000E-01 5.18549752924000E-01 5.31676903115000E-01 
5.45136368695000E-01 5.58936562268000E-01 5.73086109405000E-01 5.87593854034000E-01 
6.02468863966000E-01 6.17720436567000E-01 6.33358104567000E-01 6.49391642017000E-01 
6.65831070400000E-01 6.82686664894000E-01 6.99968960794000E-01 7.17688760098000E-01 
7.35857138256000E-01 7.54485451098000E-01 7.73585341924000E-01 7.93168748789000E-01 
8.13247911958000E-01 8.33835381564000E-01 8.54944025443000E-01 8.76587037187000E-01 
8.98777944381000E-01 9.21530617066000E-01 9.44859276402000E-01 9.68778503560000E-01 
9.93303248837000E-01 1.01844884100000E+00 1.04423099685000E+00 1.07066583109000E+00 
1.09776986634000E+00 1.12556004352000E+00 1.15405373237000E+00 1.18326874240000E+00 
1.21322333392000E+00 1.24393622954000E+00 1.27542662581000E+00 1.30771420526000E+00 
1.34081914868000E+00 1.37476214773000E+00 1.40956441789000E+00 1.44524771171000E+00 
1.48183433242000E+00 1.51934714784000E+00 1.55780960470000E+00 1.59724574330000E+00 
1.63768021250000E+00 1.67913828515000E+00 1.72164587392000E+00 1.76522954741000E+00 
1.80991654686000E+00 1.85573480308000E+00 1.90271295398000E+00 1.95088036243000E+00 
2.00026713463000E+00 2.05090413892000E+00 2.10282302508000E+00 2.15605624410000E+00 
2.21063706847000E+00 2.26659961300000E+00 2.32397885608000E+00 2.38281066161000E+00 
2.44313180140000E+00 2.50497997810000E+00 2.56839384886000E+00 2.63341304939000E+00 
2.70007821883000E+00 2.76843102506000E+00 2.83851419082000E+00 2.91037152037000E+00 
2.98404792688000E+00 3.05958946049000E+00 3.13704333714000E+00 3.21645796801000E+00 
3.29788298983000E+00 3.38136929589000E+00 3.46696906785000E+00 3.55473580835000E+00 
3.64472437447000E+00 3.73699101199000E+00 3.83159339055000E+00 3.92859063973000E+00 
4.02804338597000E+00 4.13001379046000E+00 4.23456558803000E+00 4.34176412696000E+00 
4.45167640982000E+00 4.56437113537000E+00 4.67991874147000E+00 4.79839144916000E+00 
4.91986330771000E+00 5.04441024101000E+00 5.17211009493000E+00 5.30304268605000E+00 
5.43728985149000E+00 5.57493550010000E+00 5.71606566490000E+00 5.86076855683000E+00 
6.00913461991000E+00 6.16125658776000E+00 6.31722954156000E+00 6.47715096948000E+00 
6.64112082763000E+00 6.80924160250000E+00 6.98161837504000E+00 7.15835888636000E+00 
7.33957360502000E+00 7.52537579613000E+00 7.71588159210000E+00 7.91121006525000E+00 
8.11148330224000E+00 8.31682648037000E+00 8.52736794580000E+00 8.74323929380000E+00 
8.96457545100000E+00 9.19151475969000E+00 9.42419906433000E+00 9.66277380018000E+00 
9.90738808423000E+00 1.01581948084000E+01 1.04153507349000E+01 1.06790165948000E+01 
1.09493571877000E+01 1.12265414853000E+01 1.15107427367000E+01 1.18021385771000E+01 
1.21009111383000E+01 1.24072471630000E+01 1.27213381210000E+01 1.30433803294000E+01 
1.33735750752000E+01 1.37121287408000E+01 1.40592529332000E+01 1.44151646164000E+01 
1.47800862467000E+01 1.51542459121000E+01 1.55378774746000E+01 1.59312207162000E+01 
1.63345214894000E+01 1.67480318704000E+01 1.71720103164000E+01 1.76067218279000E+01 
1.80524381137000E+01 1.85094377610000E+01 1.89780064095000E+01 1.94584369297000E+01 
1.99510296065000E+01 2.04560923263000E+01 2.09739407697000E+01 2.15048986089000E+01 
2.20492977097000E+01 2.26074783394000E+01 2.31797893790000E+01 2.37665885416000E+01 
2.43682425957000E+01 2.49851275946000E+01 2.56176291117000E+01 2.62661424809000E+01 
2.69310730442000E+01 2.76128364049000E+01 2.83118586872000E+01 2.90285768028000E+01 
2.97634387240000E+01 3.05169037632000E+01 3.12894428607000E+01 3.20815388785000E+01 
3.28936869025000E+01 3.37263945517000E+01 3.45801822953000E+01 3.54555837786000E+01 
3.63531461559000E+01 3.72734304329000E+01 3.82170118174000E+01 3.91844800784000E+01 
4.01764399149000E+01 4.11935113343000E+01 4.22363300393000E+01 4.33055478254000E+01 
4.44018329887000E+01 4.55258707430000E+01 4.66783636485000E+01 4.78600320509000E+01 
4.90716145312000E+01 5.03138683681000E+01 5.15875700106000E+01 5.28935155637000E+01 
5.42325212858000E+01 5.56054240992000E+01 5.70130821128000E+01 5.84563751587000E+01 
5.99362053419000E+01 6.14534976046000E+01 6.30092003038000E+01 6.46042858044000E+01 
6.62397510866000E+01 6.79166183696000E+01 6.96359357499000E+01 7.13987778570000E+01 
7.32062465244000E+01 7.50594714790000E+01 7.69596110467000E+01 7.89078528765000E+01 
8.09054146831000E+01 8.29535450076000E+01 8.50535239981000E+01 8.72066642099000E+01 
8.94143114256000E+01 9.16778454966000E+01 9.39986812055000E+01 9.63782691500000E+01 
9.88180966502000E+01 1.01319688678000E+02 1.03884608809000E+02 1.06514460202000E+02 
1.09210886600000E+02 1.11975573358000E+02 1.14810248494000E+02 1.17716683773000E+02 
1.20696695811000E+02 1.23752147213000E+02 1.26884947735000E+02 1.30097055481000E+02 
1.33390478121000E+02 1.36767274152000E+02 1.40229554182000E+02 1.43779482247000E+02 
1.47419277170000E+02 1.51151213940000E+02 1.54977625139000E+02 
</PP_R>
    <PP_RAB>
6.89124819202000E-10 7.06570097056000E-10 7.24457004222000E-10 7.42796720599000E-10 
7.61600709106000E-10 7.80880722848000E-10 8.00648812462000E-10 8.20917333648000E-10 
8.41698954889000E-10 8.63006665378000E-10 8.84853783125000E-10 9.07253963291000E-10 
9.30221206718000E-10 9.53769868681000E-10 9.77914667859000E-10 1.00267069554000E-09 
1.02805342504000E-09 1.05407872140000E-09 1.08076285128000E-09 1.10812249312000E-09 
1.13617474758000E-09 1.16493714826000E-09 1.19442767257000E-09 1.22466475306000E-09 
1.25566728888000E-09 1.28745465764000E-09 1.32004672747000E-09 1.35346386947000E-09 
1.38772697045000E-09 1.42285744596000E-09 1.45887725370000E-09 1.49580890721000E-09 
1.53367548997000E-09 1.57250066985000E-09 1.61230871383000E-09 1.65312450324000E-09 
1.69497354928000E-09 1.73788200897000E-09 1.78187670148000E-09 1.82698512494000E-09 
1.87323547358000E-09 1.92065665536000E-09 1.96927831008000E-09 2.01913082784000E-09 
2.07024536810000E-09 2.12265387911000E-09 2.17638911789000E-09 2.23148467072000E-09 
2.28797497411000E-09 2.34589533634000E-09 2.40528195951000E-09 2.46617196221000E-09 
2.52860340267000E-09 2.59261530257000E-09 2.65824767142000E-09 2.72554153161000E-09 
2.79453894398000E-09 2.86528303415000E-09 2.93781801950000E-09 3.01218923674000E-09 
3.08844317031000E-09 3.16662748140000E-09 3.24679103775000E-09 3.32898394419000E-09 
3.41325757396000E-09 3.49966460083000E-09 3.58825903199000E-09 3.67909624186000E-09 
3.77223300664000E-09 3.86772753985000E-09 3.96563952868000E-09 4.06603017130000E-09 
4.16896221515000E-09 4.27449999608000E-09 4.38270947867000E-09 4.49365829734000E-09 
4.60741579874000E-09 4.72405308499000E-09 4.84364305820000E-09 4.96626046599000E-09 
5.09198194825000E-09 5.22088608497000E-09 5.35305344546000E-09 5.48856663860000E-09 
5.62751036457000E-09 5.76997146770000E-09 5.91603899083000E-09 6.06580423091000E-09 
6.21936079609000E-09 6.37680466423000E-09 6.53823424286000E-09 6.70375043074000E-09 
6.87345668086000E-09 7.04745906515000E-09 7.22586634078000E-09 7.40879001809000E-09 
7.59634443034000E-09 7.78864680514000E-09 7.98581733773000E-09 8.18797926612000E-09 
8.39525894809000E-09 8.60778594020000E-09 8.82569307872000E-09 9.04911656272000E-09 
9.27819603915000E-09 9.51307469013000E-09 9.75389932247000E-09 1.00008204594000E-08 
1.02539924347000E-08 1.05135734890000E-08 1.07797258690000E-08 1.10526159286000E-08 
1.13324142330000E-08 1.16192956651000E-08 1.19134395353000E-08 1.22150296930000E-08 
1.25242546419000E-08 1.28413076576000E-08 1.31663869086000E-08 1.34996955801000E-08 
1.38414420008000E-08 1.41918397732000E-08 1.45511079076000E-08 1.49194709580000E-08 
1.52971591635000E-08 1.56844085914000E-08 1.60814612852000E-08 1.64885654159000E-08 
1.69059754366000E-08 1.73339522424000E-08 1.77727633326000E-08 1.82226829784000E-08 
1.86839923943000E-08 1.91569799136000E-08 1.96419411690000E-08 2.01391792770000E-08 
2.06490050277000E-08 2.11717370787000E-08 2.17077021545000E-08 2.22572352509000E-08 
2.28206798438000E-08 2.33983881045000E-08 2.39907211194000E-08 2.45980491161000E-08 
2.52207516941000E-08 2.58592180629000E-08 2.65138472849000E-08 2.71850485245000E-08 
2.78732413043000E-08 2.85788557673000E-08 2.93023329455000E-08 3.00441250357000E-08 
3.08046956820000E-08 3.15845202659000E-08 3.23840862032000E-08 3.32038932485000E-08 
3.40444538080000E-08 3.49062932593000E-08 3.57899502802000E-08 3.66959771851000E-08 
3.76249402703000E-08 3.85774201680000E-08 3.95540122091000E-08 4.05553267954000E-08 
4.15819897811000E-08 4.26346428641000E-08 4.37139439867000E-08 4.48205677473000E-08 
4.59552058218000E-08 4.71185673959000E-08 4.83113796085000E-08 4.95343880060000E-08 
5.07883570084000E-08 5.20740703873000E-08 5.33923317554000E-08 5.47439650689000E-08 
5.61298151426000E-08 5.75507481779000E-08 5.90076523043000E-08 6.05014381342000E-08 
6.20330393325000E-08 6.36034131997000E-08 6.52135412706000E-08 6.68644299277000E-08 
6.85571110301000E-08 7.02926425587000E-08 7.20721092770000E-08 7.38966234098000E-08 
7.57673253378000E-08 7.76853843105000E-08 7.96519991773000E-08 8.16683991365000E-08 
8.37358445037000E-08 8.58556274995000E-08 8.80290730574000E-08 9.02575396515000E-08 
9.25424201460000E-08 9.48851426656000E-08 9.72871714882000E-08 9.97500079599000E-08 
1.02275191434000E-07 1.04864300231000E-07 1.07518952631000E-07 1.10240807875000E-07 
1.13031567213000E-07 1.15892974960000E-07 1.18826819589000E-07 1.21834934849000E-07 
1.24919200908000E-07 1.28081545535000E-07 1.31323945297000E-07 1.34648426800000E-07 
1.38057067953000E-07 1.41551999268000E-07 1.45135405190000E-07 1.48809525464000E-07 
1.52576656537000E-07 1.56439152986000E-07 1.60399428999000E-07 1.64459959876000E-07 
1.68623283582000E-07 1.72892002329000E-07 1.77268784205000E-07 1.81756364843000E-07 
1.86357549125000E-07 1.91075212942000E-07 1.95912304986000E-07 2.00871848599000E-07 
2.05956943657000E-07 2.11170768508000E-07 2.16516581964000E-07 2.21997725332000E-07 
2.27617624505000E-07 2.33379792103000E-07 2.39287829668000E-07 2.45345429916000E-07 
2.51556379044000E-07 2.57924559099000E-07 2.64453950398000E-07 2.71148634026000E-07 
2.78012794376000E-07 2.85050721773000E-07 2.92266815151000E-07 2.99665584801000E-07 
3.07251655198000E-07 3.15029767880000E-07 3.23004784423000E-07 3.31181689471000E-07 
3.39565593855000E-07 3.48161737790000E-07 3.56975494144000E-07 3.66012371802000E-07 
3.75278019108000E-07 3.84778227392000E-07 3.94518934593000E-07 4.04506228972000E-07 
4.14746352911000E-07 4.25245706822000E-07 4.36010853143000E-07 4.47048520440000E-07 
4.58365607615000E-07 4.69969188216000E-07 4.81866514859000E-07 4.94065023759000E-07 
5.06572339382000E-07 5.19396279208000E-07 5.32544858616000E-07 5.46026295897000E-07 
5.59849017387000E-07 5.74021662737000E-07 5.88553090313000E-07 6.03452382730000E-07 
6.18728852529000E-07 6.34392048003000E-07 6.50451759158000E-07 6.66918023836000E-07 
6.83801133990000E-07 7.01111642111000E-07 7.18860367832000E-07 7.37058404684000E-07 
7.55717127032000E-07 7.74848197186000E-07 7.94463572686000E-07 8.14575513780000E-07 
8.35196591088000E-07 8.56339693453000E-07 8.78018036003000E-07 9.00245168407000E-07 
9.23034983346000E-07 9.46401725198000E-07 9.70359998936000E-07 9.94924779261000E-07 
1.02011141996000E-06 1.04593566351000E-06 1.07241365089000E-06 1.09956193171000E-06 
1.12739747454000E-06 1.15593767748000E-06 1.18520037911000E-06 1.21520386955000E-06 
1.24596690197000E-06 1.27750870426000E-06 1.30984899108000E-06 1.34300797616000E-06 
1.37700638494000E-06 1.41186546754000E-06 1.44760701202000E-06 1.48425335800000E-06 
1.52182741064000E-06 1.56035265496000E-06 1.59985317048000E-06 1.64035364631000E-06 
1.68187939657000E-06 1.72445637621000E-06 1.76811119721000E-06 1.81287114527000E-06 
1.85876419680000E-06 1.90581903647000E-06 1.95406507508000E-06 2.00353246797000E-06 
2.05425213387000E-06 2.10625577422000E-06 2.15957589300000E-06 2.21424581702000E-06 
2.27029971675000E-06 2.32777262770000E-06 2.38670047232000E-06 2.44712008244000E-06 
2.50906922226000E-06 2.57258661203000E-06 2.63771195217000E-06 2.70448594815000E-06 
2.77295033588000E-06 2.84314790784000E-06 2.91512253980000E-06 2.98891921824000E-06 
3.06458406849000E-06 3.14216438354000E-06 3.22170865361000E-06 3.30326659647000E-06 
3.38688918849000E-06 3.47262869650000E-06 3.56053871049000E-06 3.65067417707000E-06 
3.74309143386000E-06 3.83784824464000E-06 3.93500383551000E-06 4.03461893187000E-06 
4.13675579640000E-06 4.24147826797000E-06 4.34885180152000E-06 4.45894350902000E-06 
4.57182220137000E-06 4.68755843141000E-06 4.80622453807000E-06 4.92789469151000E-06 
5.05264493956000E-06 5.18055325517000E-06 5.31169958521000E-06 5.44616590040000E-06 
5.58403624657000E-06 5.72539679716000E-06 5.87033590713000E-06 6.01894416814000E-06 
6.17131446518000E-06 6.32754203466000E-06 6.48772452390000E-06 6.65196205215000E-06 
6.82035727322000E-06 6.99301543961000E-06 7.17004446830000E-06 7.35155500818000E-06 
7.53766050925000E-06 7.72847729351000E-06 7.92412462767000E-06 8.12472479767000E-06 
8.33040318515000E-06 8.54128834580000E-06 8.75751208971000E-06 8.97920956375000E-06 
9.20651933607000E-06 9.43958348268000E-06 9.67854767624000E-06 9.92356127717000E-06 
1.01747774269000E-05 1.04323531438000E-05 1.06964494210000E-05 1.09672313273000E-05 
1.12448681101000E-05 1.15295333016000E-05 1.18214048267000E-05 1.21206651147000E-05 
1.24275012129000E-05 1.27421049039000E-05 1.30646728253000E-05 1.33954065925000E-05 
1.37345129249000E-05 1.40822037749000E-05 1.44386964607000E-05 1.48042138018000E-05 
1.51789842585000E-05 1.55632420744000E-05 1.59572274233000E-05 1.63611865588000E-05 
1.67753719684000E-05 1.72000425316000E-05 1.76354636814000E-05 1.80819075700000E-05 
1.85396532394000E-05 1.90089867956000E-05 1.94902015874000E-05 1.99835983896000E-05 
2.04894855914000E-05 2.10081793886000E-05 2.15400039818000E-05 2.20852917787000E-05 
2.26443836019000E-05 2.32176289020000E-05 2.38053859760000E-05 2.44080221911000E-05 
2.50259142146000E-05 2.56594482492000E-05 2.63090202742000E-05 2.69750362933000E-05 
2.76579125882000E-05 2.83580759789000E-05 2.90759640901000E-05 2.98120256254000E-05 
3.05667206472000E-05 3.13405208644000E-05 3.21339099274000E-05 3.29473837301000E-05 
3.37814507202000E-05 3.46366322167000E-05 3.55134627358000E-05 3.64124903252000E-05 
3.73342769064000E-05 3.82793986260000E-05 3.92484462158000E-05 4.02420253621000E-05 
4.12607570843000E-05 4.23052781229000E-05 4.33762413374000E-05 4.44743161147000E-05 
4.56001887874000E-05 4.67545630625000E-05 4.79381604615000E-05 4.91517207713000E-05 
5.03960025066000E-05 5.16717833840000E-05 5.29798608081000E-05 5.43210523698000E-05 