<UPF version="2.0.1">
  <PP_INFO>
Generated using Vanderbilt code, version   7  3  6
Author: kfg        Generation date:    1    4   15
Automatically converted from original USPP format to UPF.v1.

Futher converted to UPF.v2 format.
Convert Q_IJ to Q_IJL use the same routine as 'upflib/upf_to_internal.f90' of QE.
The conversion is done by using PseudoPotentialIO.jl package.
Converted by: JYU on 2024-04-30

1        The Pseudo was generated with a Scalar-Relativistic Calculation
2.10000000000E+00    Local Potential cutoff radius
nl pn  l   occ               Rcut            Rcut US             E pseu
4D  4  2 10.00      0.00000000000      1.70000000000     -3.08747900200
5S  5  0  2.00      0.00000000000      1.70000000000     -1.51694249300
5P  5  1  2.00      0.00000000000      1.80000000000     -0.88149289100
</PP_INFO>
  <PP_HEADER element="Sb" pseudo_type="US" relativistic="scalar" is_ultrasoft="T" is_paw="F" is_coulomb="F" has_so="F" has_wfc="F" has_gipaw="F" core_correction="T" functional="PBE" z_valence="15.0" total_psenergy="-184.038791797" wfc_cutoff="0.0" rho_cutoff="0.0" l_max="2" mesh_size="891" number_of_wfc="3" number_of_proj="6"/>
  <PP_MESH>
    <PP_R>
0.00000000000000E+00 1.12197081103000E-09 2.27234444837000E-09 3.45183993299000E-09 
4.66119448795000E-09 5.90116399923000E-09 7.17252348814000E-09 8.47606759574000E-09 
9.81261107953000E-09 1.11829893227000E-08 1.25880588563000E-08 1.40286978944000E-08 
1.55058068834000E-08 1.70203090646000E-08 1.85731510509000E-08 2.01653034193000E-08 
2.17977613168000E-08 2.34715450828000E-08 2.51877008865000E-08 2.69473013812000E-08 
2.87514463745000E-08 3.06012635157000E-08 3.24979090008000E-08 3.44425682950000E-08 
3.64364568736000E-08 3.84808209819000E-08 4.05769384140000E-08 4.27261193115000E-08 
4.49297069824000E-08 4.71890787408000E-08 4.95056467676000E-08 5.18808589932000E-08 
5.43162000026000E-08 5.68131919631000E-08 5.93733955760000E-08 6.19984110520000E-08 
6.46898791112000E-08 6.74494820086000E-08 7.02789445860000E-08 7.31800353495000E-08 
7.61545675754000E-08 7.92044004431000E-08 8.23314401974000E-08 8.55376413400000E-08 
8.88250078509000E-08 9.21955944413000E-08 9.56515078374000E-08 9.91949080977000E-08 
1.02828009963000E-07 1.06553084239000E-07 1.10372459220000E-07 1.14288522139000E-07 
1.18303720662000E-07 1.22420564420000E-07 1.26641626574000E-07 1.30969545426000E-07 
1.35407026064000E-07 1.39956842060000E-07 1.44621837196000E-07 1.49404927246000E-07 
1.54309101797000E-07 1.59337426118000E-07 1.64493043075000E-07 1.69779175097000E-07 
1.75199126188000E-07 1.80756283995000E-07 1.86454121921000E-07 1.92296201300000E-07 
1.98286173624000E-07 2.04427782818000E-07 2.10724867590000E-07 2.17181363821000E-07 
2.23801307033000E-07 2.30588834905000E-07 2.37548189864000E-07 2.44683721731000E-07 
2.51999890449000E-07 2.59501268858000E-07 2.67192545567000E-07 2.75078527872000E-07 
2.83164144770000E-07 2.91454450034000E-07 2.99954625375000E-07 3.08669983679000E-07 
3.17605972329000E-07 3.26768176609000E-07 3.36162323195000E-07 3.45794283733000E-07 
3.55670078514000E-07 3.65795880229000E-07 3.76178017835000E-07 3.86822980507000E-07 
3.97737421691000E-07 4.08928163269000E-07 4.20402199819000E-07 4.32166702987000E-07 
4.44229025971000E-07 4.56596708115000E-07 4.69277479623000E-07 4.82279266390000E-07 
4.95610194956000E-07 5.09278597586000E-07 5.23293017475000E-07 5.37662214093000E-07 
5.52395168655000E-07 5.67501089738000E-07 5.82989419033000E-07 5.98869837252000E-07 
6.15152270171000E-07 6.31846894843000E-07 6.48964145950000E-07 6.66514722331000E-07 
6.84509593670000E-07 7.02960007344000E-07 7.21877495465000E-07 7.41273882078000E-07 
7.61161290555000E-07 7.81552151175000E-07 8.02459208889000E-07 8.23895531289000E-07 
8.45874516775000E-07 8.68409902926000E-07 8.91515775095000E-07 9.15206575202000E-07 
9.39497110769000E-07 9.64402564171000E-07 9.89938502128000E-07 1.01612088543000E-06 
1.04296607893000E-06 1.07049086173000E-06 1.09871243772000E-06 1.12764844632000E-06 
1.15731697346000E-06 1.18773656293000E-06 1.21892622799000E-06 1.25090546317000E-06 
1.28369425655000E-06 1.31731310218000E-06 1.35178301294000E-06 1.38712553365000E-06 
1.42336275452000E-06 1.46051732502000E-06 1.49861246794000E-06 1.53767199399000E-06 
1.57772031666000E-06 1.61878246744000E-06 1.66088411152000E-06 1.70405156379000E-06 
1.74831180532000E-06 1.79369250019000E-06 1.84022201283000E-06 1.88792942569000E-06 
1.93684455745000E-06 1.98699798167000E-06 2.03842104587000E-06 2.09114589114000E-06 
2.14520547222000E-06 2.20063357811000E-06 2.25746485318000E-06 2.31573481883000E-06 
2.37547989568000E-06 2.43673742635000E-06 2.49954569880000E-06 2.56394397023000E-06 
2.62997249167000E-06 2.69767253308000E-06 2.76708640920000E-06 2.83825750596000E-06 
2.91123030762000E-06 2.98605042454000E-06 3.06276462174000E-06 3.14142084809000E-06 
3.22206826629000E-06 3.30475728360000E-06 3.38953958335000E-06 3.47646815723000E-06 
3.56559733844000E-06 3.65698283562000E-06 3.75068176767000E-06 3.84675269948000E-06 
3.94525567850000E-06 4.04625227232000E-06 4.14980560707000E-06 4.25598040698000E-06 
4.36484303474000E-06 4.47646153305000E-06 4.59090566709000E-06 4.70824696818000E-06 
4.82855877845000E-06 4.95191629670000E-06 5.07839662539000E-06 5.20807881884000E-06 
5.34104393265000E-06 5.47737507434000E-06 5.61715745532000E-06 5.76047844412000E-06 
5.90742762102000E-06 6.05809683404000E-06 6.21258025636000E-06 6.37097444513000E-06 
6.53337840187000E-06 6.69989363436000E-06 6.87062422002000E-06 7.04567687104000E-06 
7.22516100102000E-06 7.40918879338000E-06 7.59787527149000E-06 7.79133837052000E-06 
7.98969901123000E-06 8.19308117547000E-06 8.40161198370000E-06 8.61542177448000E-06 
8.83464418588000E-06 9.05941623905000E-06 9.28987842383000E-06 9.52617478660000E-06 
9.76845302027000E-06 1.00168645566000E-05 1.02715646610000E-05 1.05327125291000E-05 
1.08004713871000E-05 1.10750085928000E-05 1.13564957409000E-05 1.16451087701000E-05 
1.19410280730000E-05 1.22444386087000E-05 1.25555300186000E-05 1.28744967451000E-05 
1.32015381527000E-05 1.35368586529000E-05 1.38806678321000E-05 1.42331805820000E-05 
1.45946172347000E-05 1.49652036998000E-05 1.53451716060000E-05 1.57347584454000E-05 
1.61342077227000E-05 1.65437691066000E-05 1.69636985863000E-05 1.73942586313000E-05 
1.78357183558000E-05 1.82883536865000E-05 1.87524475350000E-05 1.92282899753000E-05 
1.97161784243000E-05 2.02164178282000E-05 2.07293208530000E-05 2.12552080795000E-05 
2.17944082047000E-05 2.23472582459000E-05 2.29141037526000E-05 2.34952990216000E-05 
2.40912073190000E-05 2.47022011066000E-05 2.53286622757000E-05 2.59709823847000E-05 
2.66295629047000E-05 2.73048154700000E-05 2.79971621353000E-05 2.87070356399000E-05 
2.94348796779000E-05 3.01811491753000E-05 3.09463105751000E-05 3.17308421279000E-05 
3.25352341915000E-05 3.33599895372000E-05 3.42056236638000E-05 3.50726651203000E-05 
3.59616558357000E-05 3.68731514583000E-05 3.78077217024000E-05 3.87659507048000E-05 
3.97484373900000E-05 4.07557958440000E-05 4.17886556986000E-05 4.28476625250000E-05 
4.39334782368000E-05 4.50467815043000E-05 4.61882681781000E-05 4.73586517247000E-05 
4.85586636718000E-05 4.97890540659000E-05 5.10505919412000E-05 5.23440657999000E-05 
5.36702841051000E-05 5.50300757866000E-05 5.64242907585000E-05 5.78538004503000E-05 
5.93194983523000E-05 6.08223005734000E-05 6.23631464138000E-05 6.39429989523000E-05 
6.55628456483000E-05 6.72236989586000E-05 6.89265969707000E-05 7.06726040512000E-05 
7.24628115113000E-05 7.42983382891000E-05 7.61803316484000E-05 7.81099678965000E-05 
8.00884531188000E-05 8.21170239329000E-05 8.41969482617000E-05 8.63295261255000E-05 
8.85160904550000E-05 9.07580079240000E-05 9.30566798040000E-05 9.54135428397000E-05 
9.78300701471000E-05 1.00307772135000E-04 1.02848197447000E-04 1.05452933931000E-04 
1.08123609634000E-04 1.10861893815000E-04 1.13669497989000E-04 1.16548177001000E-04 
1.19499730120000E-04 1.22526002161000E-04 1.25628884644000E-04 1.28810316971000E-04 
1.32072287641000E-04 1.35416835491000E-04 1.38846050973000E-04 1.42362077459000E-04 
1.45967112579000E-04 1.49663409597000E-04 1.53453278820000E-04 1.57339089039000E-04 
1.61323269012000E-04 1.65408308981000E-04 1.69596762230000E-04 1.73891246677000E-04 
1.78294446515000E-04 1.82809113889000E-04 1.87438070611000E-04 1.92184209930000E-04 
1.97050498338000E-04 2.02039977423000E-04 2.07155765773000E-04 2.12401060922000E-04 
2.17779141350000E-04 2.23293368531000E-04 2.28947189039000E-04 2.34744136694000E-04 
2.40687834778000E-04 2.46781998295000E-04 2.53030436296000E-04 2.59437054258000E-04 
2.66005856525000E-04 2.72740948814000E-04 2.79646540776000E-04 2.86726948631000E-04 
2.93986597864000E-04 3.01430025992000E-04 3.09061885401000E-04 3.16886946250000E-04 
3.24910099458000E-04 3.33136359756000E-04 3.41570868825000E-04 3.50218898508000E-04 
3.59085854104000E-04 3.68177277751000E-04 3.77498851882000E-04 3.87056402786000E-04 
3.96855904243000E-04 4.06903481261000E-04 4.17205413901000E-04 4.27768141209000E-04 
4.38598265231000E-04 4.49702555147000E-04 4.61087951502000E-04 4.72761570537000E-04 
4.84730708646000E-04 4.97002846928000E-04 5.09585655870000E-04 5.22487000136000E-04 
5.35714943488000E-04 5.49277753820000E-04 5.63183908330000E-04 5.77442098818000E-04 
5.92061237116000E-04 6.07050460662000E-04 6.22419138209000E-04 6.38176875680000E-04 
6.54333522175000E-04 6.70899176123000E-04 6.87884191597000E-04 7.05299184785000E-04 
7.23155040624000E-04 7.41462919606000E-04 7.60234264751000E-04 7.79480808761000E-04 
7.99214581352000E-04 8.19447916775000E-04 8.40193461522000E-04 8.61464182235000E-04 
8.83273373807000E-04 9.05634667692000E-04 9.28562040426000E-04 9.52069822365000E-04 
9.76172706636000E-04 1.00088575833000E-03 1.02622442390000E-03 1.05220454085000E-03 
1.07884234759000E-03 1.10615449362000E-03 1.13415804991000E-03 1.16287051961000E-03 
1.19230984894000E-03 1.22249443844000E-03 1.25344315446000E-03 1.28517534095000E-03 
1.31771083158000E-03 1.35106996206000E-03 1.38527358296000E-03 1.42034307264000E-03 
1.45630035068000E-03 1.49316789155000E-03 1.53096873866000E-03 1.56972651877000E-03 
1.60946545675000E-03 1.65021039074000E-03 1.69198678765000E-03 1.73482075907000E-03 
1.77873907765000E-03 1.82376919375000E-03 1.86993925267000E-03 1.91727811219000E-03 
1.96581536065000E-03 2.01558133541000E-03 2.06660714181000E-03 2.11892467266000E-03 
2.17256662810000E-03 2.22756653611000E-03 2.28395877341000E-03 2.34177858701000E-03 
2.40106211615000E-03 2.46184641498000E-03 2.52416947565000E-03 2.58807025213000E-03 
2.65358868446000E-03 2.72076572380000E-03 2.78964335798000E-03 2.86026463778000E-03 
2.93267370379000E-03 3.00691581403000E-03 3.08303737224000E-03 3.16108595687000E-03 
3.24111035083000E-03 3.32316057196000E-03 3.40728790433000E-03 3.49354493026000E-03 
3.58198556320000E-03 3.67266508142000E-03 3.76564016258000E-03 3.86096891911000E-03 
3.95871093461000E-03 4.05892730101000E-03 4.16168065681000E-03 4.26703522619000E-03 
4.37505685920000E-03 4.48581307286000E-03 4.59937309342000E-03 4.71580789959000E-03 
4.83519026691000E-03 4.95759481324000E-03 5.08309804542000E-03 5.21177840705000E-03 
5.34371632754000E-03 5.47899427239000E-03 5.61769679472000E-03 5.75991058812000E-03 
5.90572454084000E-03 6.05522979135000E-03 6.20851978529000E-03 6.36569033390000E-03 
6.52683967390000E-03 6.69206852885000E-03 6.86148017219000E-03 7.03518049170000E-03 
7.21327805573000E-03 7.39588418105000E-03 7.58311300245000E-03 7.77508154403000E-03 
7.97190979238000E-03 8.17372077155000E-03 8.38064061999000E-03 8.59279866932000E-03 
8.81032752525000E-03 9.03336315038000E-03 9.26204494925000E-03 9.49651585541000E-03 
9.73692242082000E-03 9.98341490741000E-03 1.02361473810000E-02 1.04952778076000E-02 
1.07609681522000E-02 1.10333844800000E-02 1.13126970598000E-02 1.15990804713000E-02 
1.18927137134000E-02 1.21937803164000E-02 1.25024684567000E-02 1.28189710745000E-02 
1.31434859942000E-02 1.34762160483000E-02 1.38173692037000E-02 1.41671586924000E-02 
1.45258031442000E-02 1.48935267234000E-02 1.52705592695000E-02 1.56571364398000E-02 
1.60534998578000E-02 1.64598972635000E-02 1.68765826685000E-02 1.73038165148000E-02 
1.77418658374000E-02 1.81910044314000E-02 1.86515130230000E-02 1.91236794451000E-02 
1.96077988171000E-02 2.01041737293000E-02 2.06131144323000E-02 2.11349390305000E-02 
2.16699736813000E-02 2.22185527988000E-02 2.27810192627000E-02 2.33577246330000E-02 
2.39490293692000E-02 2.45553030561000E-02 2.51769246345000E-02 2.58142826380000E-02 
2.64677754362000E-02 2.71378114834000E-02 2.78248095738000E-02 2.85291991037000E-02 
2.92514203394000E-02 2.99919246928000E-02 3.07511750032000E-02 3.15296458266000E-02 
3.23278237328000E-02 3.31462076088000E-02 3.39853089713000E-02 3.48456522860000E-02 
3.57277752953000E-02 3.66322293550000E-02 3.75595797781000E-02 3.85104061890000E-02 
3.94853028851000E-02 4.04848792086000E-02 4.15097599271000E-02 4.25605856246000E-02 
4.36380131012000E-02 4.47427157843000E-02 4.58753841490000E-02 4.70367261498000E-02 
4.82274676633000E-02 4.94483529417000E-02 5.07001450782000E-02 5.19836264834000E-02 
5.32995993751000E-02 5.46488862791000E-02 5.60323305438000E-02 5.74507968668000E-02 
5.89051718356000E-02 6.03963644821000E-02 6.19253068502000E-02 6.34929545786000E-02 
6.51002874982000E-02 6.67483102443000E-02 6.84380528849000E-02 7.01705715642000E-02 
7.19469491625000E-02 7.37682959739000E-02 7.56357503994000E-02 7.75504796587000E-02 
7.95136805199000E-02 8.15265800476000E-02 8.35904363694000E-02 8.57065394628000E-02 
8.78762119610000E-02 9.01008099799000E-02 9.23817239659000E-02 9.47203795643000E-02 
9.71182385111000E-02 9.95767995461000E-02 1.02097599350000E-01 1.04682213505000E-01 
1.07332257478000E-01 1.10049387635000E-01 1.12835302268000E-01 1.15691742666000E-01 
1.18620494198000E-01 1.21623387427000E-01 1.24702299260000E-01 1.27859154118000E-01 
1.31095925136000E-01 1.34414635403000E-01 1.37817359221000E-01 1.41306223402000E-01 
1.44883408600000E-01 1.48551150673000E-01 1.52311742078000E-01 1.56167533308000E-01 
1.60120934358000E-01 1.64174416231000E-01 1.68330512487000E-01 1.72591820821000E-01 
1.76961004688000E-01 1.81440794972000E-01 1.86033991687000E-01 1.90743465730000E-01 
1.95572160676000E-01 2.00523094617000E-01 2.05599362047000E-01 2.10804135799000E-01 
2.16140669026000E-01 2.21612297234000E-01 2.27222440370000E-01 2.32974604956000E-01 
2.38872386282000E-01 2.44919470652000E-01 2.51119637693000E-01 2.57476762709000E-01 
2.63994819111000E-01 2.70677880897000E-01 2.77530125197000E-01 2.84555834887000E-01 
2.91759401266000E-01 2.99145326795000E-01 3.06718227919000E-01 3.14482837948000E-01 
3.22444010015000E-01 3.30606720113000E-01 3.38976070201000E-01 3.47557291395000E-01 
3.56355747238000E-01 3.65376937050000E-01 3.74626499371000E-01 3.84110215476000E-01 
3.93834012997000E-01 4.03803969625000E-01 4.14026316906000E-01 4.24507444141000E-01 
4.35253902375000E-01 4.46272408494000E-01 4.57569849424000E-01 4.69153286432000E-01 
4.81029959545000E-01 4.93207292068000E-01 5.05692895233000E-01 5.18494572946000E-01 
5.31620326673000E-01 5.45078360438000E-01 5.58877085950000E-01 5.73025127861000E-01 
5.87531329158000E-01 6.02404756690000E-01 6.17654706832000E-01 6.33290711300000E-01 
6.49322543105000E-01 6.65760222665000E-01 6.82614024064000E-01 6.99894481477000E-01 
7.17612395752000E-01 7.35778841162000E-01 7.54405172328000E-01 7.73503031311000E-01 
7.93084354897000E-01 8.13161382049000E-01 8.33746661563000E-01 8.54853059910000E-01 
8.76493769274000E-01 8.98682315804000E-01 9.21432568064000E-01 9.44758745701000E-01 
9.68675428337000E-01 9.93197564677000E-01 1.01834048185000E+00 1.04411989501000E+00 
1.07055191711000E+00 1.09765306905000E+00 1.12544028990000E+00 1.15393094761000E+00 
1.18314284975000E+00 1.21309425471000E+00 1.24380388309000E+00 1.27529092943000E+00 
1.30757507413000E+00 1.34067649585000E+00 1.37461588405000E+00 1.40941445195000E+00 
1.44509394979000E+00 1.48167667842000E+00 1.51918550323000E+00 1.55764386847000E+00 
1.59707581186000E+00 1.63750597964000E+00 1.67895964200000E+00 1.72146270881000E+00 
1.76504174589000E+00 1.80972399154000E+00 1.85553737362000E+00 1.90251052699000E+00 
1.95067281140000E+00 2.00005432985000E+00 2.05068594739000E+00 2.10259931043000E+00 
2.15582686651000E+00 2.21040188458000E+00 2.26635847582000E+00 2.32373161491000E+00 
2.38255716193000E+00 2.44287188476000E+00 2.50471348207000E+00 2.56812060687000E+00 
2.63313289068000E+00 2.69979096828000E+00 2.76813650316000E+00 2.83821221349000E+00 
2.91006189887000E+00 2.98373046769000E+00 3.05926396522000E+00 3.13670960233000E+00 
3.21611578509000E+00 3.29753214493000E+00 3.38100956974000E+00 3.46660023561000E+00 
3.55435763951000E+00 3.64433663266000E+00 3.73659345487000E+00 3.83118576965000E+00 
3.92817270028000E+00 4.02761486675000E+00 4.12957442365000E+00 4.23411509903000E+00 
4.34130223419000E+00 4.45120282461000E+00 4.56388556171000E+00 4.67942087589000E+00 
4.79788098047000E+00 4.91933991687000E+00 5.04387360089000E+00 5.17155987013000E+00 
5.30247853266000E+00 5.43671141692000E+00 5.57434242282000E+00 5.71545757422000E+00 
5.86014507268000E+00 6.00849535261000E+00 6.16060113775000E+00 6.31655749918000E+00 
6.47646191469000E+00 6.64041432976000E+00 6.80851721997000E+00 6.98087565511000E+00 
7.15759736480000E+00 7.33879280588000E+00 7.52457523139000E+00 7.71506076139000E+00 
7.91036845554000E+00 8.11062038750000E+00 8.31594172126000E+00 8.52646078933000E+00 
8.74230917298000E+00 8.96362178448000E+00 9.19053695141000E+00 9.42319650314000E+00 
9.66174585947000E+00 9.90633412150000E+00 1.01571141649000E+01 1.04142427352000E+01 
1.06778805464000E+01 1.09481923805000E+01 1.12253471912000E+01 1.15095182094000E+01 
1.18008830512000E+01 1.20996238291000E+01 1.24059272657000E+01 1.27199848108000E+01 
1.30419927605000E+01 1.33721523802000E+01 1.37106700305000E+01 1.40577572959000E+01 
1.44136311173000E+01 1.47785139273000E+01 1.51526337897000E+01 1.55362245415000E+01 
1.59295259394000E+01 1.63327838095000E+01 1.67462502013000E+01 1.71701835446000E+01 
1.76048488116000E+01 1.80505176822000E+01 1.85074687139000E+01 1.89759875162000E+01 
1.94563669283000E+01 1.99489072032000E+01 2.04539161945000E+01 2.09717095493000E+01 
2.15026109053000E+01 2.20469520930000E+01 2.26050733436000E+01 2.31773235009000E+01 
2.37640602398000E+01 2.43656502901000E+01 2.49824696650000E+01 2.56149038967000E+01 
2.62633482771000E+01 2.69282081053000E+01 2.76098989401000E+01 2.83088468605000E+01 
2.90254887318000E+01 2.97602724785000E+01 3.05136573643000E+01 3.12861142792000E+01 
3.20781260340000E+01 3.28901876619000E+01 3.37228067278000E+01 3.45765036456000E+01 
3.54518120038000E+01 3.63492788986000E+01 3.72694652761000E+01 3.82129462825000E+01 
3.91803116244000E+01 4.01721659365000E+01 4.11891291600000E+01 4.22318369301000E+01 
4.33009409731000E+01 4.43971095138000E+01 4.55210276932000E+01 4.66733979967000E+01 
4.78549406934000E+01 4.90663942859000E+01 5.03085159720000E+01 5.15820821184000E+01 
5.28878887453000E+01 5.42267520242000E+01 5.55995087885000E+01 5.70070170557000E+01 
5.84501565643000E+01 5.99298293236000E+01 6.14469601770000E+01 6.30024973809000E+01 
6.45974131965000E+01 6.62327044983000E+01 6.79093933965000E+01 6.96285278761000E+01 
7.13911824524000E+01 7.31984588417000E+01 7.50514866506000E+01 7.69514240818000E+01 
7.88994586581000E+01 8.08968079644000E+01 8.29447204092000E+01 8.50444760044000E+01 
8.71973871655000E+01 8.94047995321000E+01 9.16680928089000E+01 9.39886816277000E+01 
9.63680164321000E+01 9.88075843839000E+01 1.01308910292000E+02 1.03873557568000E+02 
1.06503129198000E+02 1.09199268751000E+02 1.11963661402000E+02 1.14798034986000E+02 
1.17704161078000E+02 1.20683856103000E+02 1.23738982467000E+02 1.26871449723000E+02 
1.30083215765000E+02 1.33376288051000E+02 1.36752724860000E+02 1.40214636573000E+02 
1.43764186998000E+02 1.47403594720000E+02 1.51135134487000E+02 1.54961138633000E+02 
1.58883998536000E+02 1.62906166109000E+02 1.67030155339000E+02 1.71258543854000E+02 
1.75593974534000E+02 1.80039157164000E+02 1.84596870127000E+02 1.89269962144000E+02 
1.94061354049000E+02 1.98974040617000E+02 2.04011092437000E+02 
</PP_R>
    <PP_RAB>
1.10800461127000E-09 1.13605388154000E-09 1.16481322247000E-09 1.19430060959000E-09 
1.22453447346000E-09 1.25553371125000E-09 1.28731769847000E-09 1.31990630116000E-09 
1.35331988825000E-09 1.38757934433000E-09 1.42270608267000E-09 1.45872205863000E-09 
1.49564978335000E-09 1.53351233788000E-09 1.57233338754000E-09 1.61213719675000E-09 
1.65294864419000E-09 1.69479323833000E-09 1.73769713343000E-09 1.78168714579000E-09 
1.82679077063000E-09 1.87303619916000E-09 1.92045233629000E-09 1.96906881864000E-09 
2.01891603311000E-09 2.07002513581000E-09 2.12242807161000E-09 2.17615759405000E-09 
2.23124728583000E-09 2.28773157979000E-09 2.34564578046000E-09 2.40502608610000E-09 
2.46590961133000E-09 2.52833441034000E-09 2.59233950067000E-09 2.65796488757000E-09 
2.72525158904000E-09 2.79424166148000E-09 2.86497822591000E-09 2.93750549500000E-09 
3.01186880065000E-09 3.08811462234000E-09 3.16629061620000E-09 3.24644564477000E-09 
3.32862980754000E-09 3.41289447230000E-09 3.49929230720000E-09 3.58787731371000E-09 
3.67870486033000E-09 3.77183171724000E-09 3.86731609176000E-09 3.96521766473000E-09 
4.06559762782000E-09 4.16851872177000E-09 4.27404527562000E-09 4.38224324690000E-09 
4.49318026287000E-09 4.60692566276000E-09 4.72355054116000E-09 4.84312779241000E-09 
4.96573215619000E-09 5.09144026422000E-09 5.22033068815000E-09 5.35248398870000E-09 
5.48798276598000E-09 5.62691171113000E-09 5.76935765928000E-09 5.91540964377000E-09 
6.06515895186000E-09 6.21869918172000E-09 6.37612630101000E-09 6.53753870680000E-09 
6.70303728710000E-09 6.87272548390000E-09 7.04670935786000E-09 7.22509765455000E-09 
7.40800187248000E-09 7.59553633272000E-09 7.78781825044000E-09 7.98496780807000E-09 
8.18710823051000E-09 8.39436586211000E-09 8.60687024564000E-09 8.82475420325000E-09 
9.04815391950000E-09 9.27720902650000E-09 9.51206269113000E-09 9.75286170459000E-09 
9.99975657410000E-09 1.02529016170000E-08 1.05124550572000E-08 1.07785791239000E-08 
1.10514401535000E-08 1.13312086930000E-08 1.16180596067000E-08 1.19121721859000E-08 
1.22137302605000E-08 1.25229223141000E-08 1.28399416018000E-08 1.31649862710000E-08 
1.34982594852000E-08 1.38399695509000E-08 1.41903300481000E-08 1.45495599636000E-08 
1.49178838276000E-08 1.52955318547000E-08 1.56827400871000E-08 1.60797505426000E-08 
1.64868113655000E-08 1.69041769823000E-08 1.73321082600000E-08 1.77708726695000E-08 
1.82207444530000E-08 1.86820047949000E-08 1.91549419979000E-08 1.96398516632000E-08 
2.01370368751000E-08 2.06468083906000E-08 2.11694848335000E-08 2.17053928935000E-08 
2.22548675306000E-08 2.28182521844000E-08 2.33958989886000E-08 2.39881689913000E-08 
2.45954323805000E-08 2.52180687155000E-08 2.58564671645000E-08 2.65110267471000E-08 
2.71821565844000E-08 2.78702761544000E-08 2.85758155543000E-08 2.92992157692000E-08 
3.00409289477000E-08 3.08014186846000E-08 3.15811603110000E-08 3.23806411905000E-08 
3.32003610249000E-08 3.40408321657000E-08 3.49025799348000E-08 3.57861429524000E-08 
3.66920734744000E-08 3.76209377367000E-08 3.85733163097000E-08 3.95498044611000E-08 
4.05510125278000E-08 4.15775662973000E-08 4.26301073992000E-08 4.37092937060000E-08 
4.48157997442000E-08 4.59503171161000E-08 4.71135549321000E-08 4.83062402535000E-08 
4.95291185476000E-08 5.07829541531000E-08 5.20685307581000E-08 5.33866518897000E-08 
5.47381414167000E-08 5.61238440640000E-08 5.75446259407000E-08 5.90013750820000E-08 
6.04950020033000E-08 6.20264402701000E-08 6.35966470813000E-08 6.52066038671000E-08 
6.68573169029000E-08 6.85498179383000E-08 7.02851648413000E-08 7.20644422604000E-08 
7.38887623017000E-08 7.57592652248000E-08 7.76771201548000E-08 7.96435258135000E-08 
8.16597112684000E-08 8.37269367012000E-08 8.58464941949000E-08 8.80197085421000E-08 
9.02479380723000E-08 9.25325755017000E-08 9.48750488030000E-08 9.72768220982000E-08 
9.97393965738000E-08 1.02264311419000E-07 1.04853144788000E-07 1.07507514786000E-07 
1.10229080480000E-07 1.13019542937000E-07 1.15880646289000E-07 1.18814178816000E-07 
1.21821974073000E-07 1.24905912029000E-07 1.28067920246000E-07 1.31309975082000E-07 
1.34634102928000E-07 1.38042381470000E-07 1.41536940994000E-07 1.45119965714000E-07 
1.48793695137000E-07 1.52560425462000E-07 1.56422511020000E-07 1.60382365739000E-07 
1.64442464658000E-07 1.68605345470000E-07 1.72873610112000E-07 1.77249926387000E-07 
1.81737029637000E-07 1.86337724446000E-07 1.91054886398000E-07 1.95891463874000E-07 
2.00850479892000E-07 2.05935033998000E-07 2.11148304204000E-07 2.16493548973000E-07 
2.21974109258000E-07 2.27593410587000E-07 2.33354965207000E-07 2.39262374276000E-07 
2.45319330118000E-07 2.51529618527000E-07 2.57897121135000E-07 2.64425817840000E-07 
2.71119789288000E-07 2.77983219431000E-07 2.85020398134000E-07 2.92235723865000E-07 
2.99633706436000E-07 3.07218969828000E-07 3.14996255076000E-07 3.22970423238000E-07 
3.31146458428000E-07 3.39529470935000E-07 3.48124700413000E-07 3.56937519162000E-07 
3.65973435479000E-07 3.75238097107000E-07 3.84737294760000E-07 3.94476965747000E-07 
4.04463197679000E-07 4.14702232276000E-07 4.25200469268000E-07 4.35964470395000E-07 
4.47000963507000E-07 4.58316846773000E-07 4.69919192987000E-07 4.81815253994000E-07 
4.94012465220000E-07 5.06518450317000E-07 5.19341025935000E-07 5.32488206600000E-07 
5.45968209728000E-07 5.59789460760000E-07 5.73960598427000E-07 5.88490480153000E-07 
6.03388187585000E-07 6.18663032277000E-07 6.34324561503000E-07 6.50382564229000E-07 
6.66847077229000E-07 6.83728391361000E-07 7.01037057994000E-07 7.18783895609000E-07 
7.36979996558000E-07 7.55636733995000E-07 7.74765768988000E-07 7.94379057808000E-07 
8.14488859399000E-07 8.35107743040000E-07 8.56248596206000E-07 8.77924632618000E-07 
9.00149400504000E-07 9.22936791068000E-07 9.46301047170000E-07 9.70256772232000E-07 
9.94818939361000E-07 1.02000290071000E-06 1.04582439708000E-06 1.07229956774000E-06 
1.09944496053000E-06 1.12727754222000E-06 1.15581470906000E-06 1.18507429773000E-06 
1.21507459641000E-06 1.24583435626000E-06 1.27737280314000E-06 1.30970964961000E-06 
1.34286510724000E-06 1.37685989928000E-06 1.41171527357000E-06 1.44745301587000E-06 
1.48409546342000E-06 1.52166551895000E-06 1.56018666496000E-06 1.59968297842000E-06 
1.64017914582000E-06 1.68170047858000E-06 1.72427292888000E-06 1.76792310589000E-06 
1.81267829239000E-06 1.85856646184000E-06 1.90561629582000E-06 1.95385720202000E-06 
2.00331933258000E-06 2.05403360293000E-06 2.10603171115000E-06 2.15934615775000E-06 
2.21401026599000E-06 2.27005820271000E-06 2.32752499971000E-06 2.38644657560000E-06 
2.44685975829000E-06 2.50880230798000E-06 2.57231294078000E-06 2.63743135290000E-06 
2.70419824547000E-06 2.77265534998000E-06 2.84284545433000E-06 2.91481242964000E-06 
2.98860125761000E-06 3.06425805864000E-06 3.14183012071000E-06 3.22136592889000E-06 
3.30291519563000E-06 3.38652889189000E-06 3.47225927895000E-06 3.56015994109000E-06 
3.65028581908000E-06 3.74269324454000E-06 3.83743997511000E-06 3.93458523059000E-06 
4.03418972991000E-06 4.13631572914000E-06 4.24102706035000E-06 4.34838917153000E-06 
4.45846916750000E-06 4.57133585183000E-06 4.68705976987000E-06 4.80571325285000E-06 
4.92737046306000E-06 5.05210744020000E-06 5.18000214895000E-06 5.31113452766000E-06 
5.44558653835000E-06 5.58344221790000E-06 5.72478773059000E-06 5.86971142196000E-06 
6.01830387405000E-06 6.17065796198000E-06 6.32686891200000E-06 6.48703436105000E-06 
6.65125441775000E-06 6.81963172497000E-06 6.99227152402000E-06 7.16928172039000E-06 
7.35077295121000E-06 7.53685865442000E-06 7.72765513963000E-06 7.92328166087000E-06 
8.12386049106000E-06 8.32951699851000E-06 8.54037972524000E-06 8.75658046731000E-06 
8.97825435722000E-06 9.20553994837000E-06 9.43857930166000E-06 9.67751807426000E-06 
9.92250561069000E-06 1.01736950361000E-05 1.04312433521000E-05 1.06953115348000E-05 
1.09660646354000E-05 1.12436718833000E-05 1.15283067922000E-05 1.18201472680000E-05 
1.21193757208000E-05 1.24261791778000E-05 1.27407494014000E-05 1.30632830080000E-05 
1.33939815918000E-05 1.37330518501000E-05 1.40807057129000E-05 1.44371604751000E-05 
1.48026389325000E-05 1.51773695212000E-05 1.55615864598000E-05 1.59555298966000E-05 
1.63594460590000E-05 1.67735874077000E-05 1.71982127945000E-05 1.76335876242000E-05 
1.80799840202000E-05 1.85376809948000E-05 1.90069646234000E-05 1.94881282236000E-05 
1.99814725384000E-05 2.04873059240000E-05 2.10059445427000E-05 2.15377125605000E-05 
2.20829423498000E-05 2.26419746969000E-05 2.32151590153000E-05 2.38028535637000E-05 
2.44054256705000E-05 2.50232519628000E-05 2.56567186022000E-05 2.63062215258000E-05 
2.69721666943000E-05 2.76549703450000E-05 2.83550592524000E-05 2.90728709948000E-05 
2.98088542280000E-05 3.05634689655000E-05 3.13371868660000E-05 3.21304915284000E-05 
3.29438787940000E-05 3.37778570562000E-05 3.46329475786000E-05 3.55096848207000E-05 
3.64086167717000E-05 3.73303052934000E-05 3.82753264712000E-05 3.92442709739000E-05 
4.02377444235000E-05 4.12563677732000E-05 4.23007776958000E-05 4.33716269814000E-05 
4.44695849458000E-05 4.55953378484000E-05 4.67495893213000E-05 4.79330608095000E-05 
4.91464920210000E-05 5.03906413898000E-05 5.16662865499000E-05 5.29742248210000E-05 
5.43152737070000E-05 5.56902714072000E-05 5.71000773399000E-05 5.85455726798000E-05 
6.00276609083000E-05 6.15472683790000E-05 6.31053448960000E-05 6.47028643078000E-05 
6.63408251160000E-05 6.80202510995000E-05 6.97421919542000E-05 7.15077239491000E-05 
7.33179505993000E-05 7.51740033554000E-05 7.70770423106000E-05 7.90282569264000E-05 
8.10288667753000E-05 8.30801223037000E-05 8.51833056130000E-05 8.73397312612000E-05 
8.95507470847000E-05 9.18177350402000E-05 9.41421120690000E-05 9.65253309824000E-05 
9.89688813699000E-05 1.01474290530000E-04 1.04043124425000E-04 1.06676988659000E-04 