<UPF version="2.0.1">
  <PP_INFO>
Generated using Vanderbilt code, version   7  3  6
Author: kfg        Generation date:   13    5 2013
Automatically converted from original USPP format to UPF.v1.

Futher converted to UPF.v2 format.
Convert Q_IJ to Q_IJL use the same routine as 'upflib/upf_to_internal.f90' of QE.
The conversion is done by using PseudoPotentialIO.jl package.
Converted by: JYU on 2024-04-30

1        The Pseudo was generated with a Scalar-Relativistic Calculation
1.70000000000E+00    Local Potential cutoff radius
nl pn  l   occ               Rcut            Rcut US             E pseu
3S  3  0  2.00      0.00000000000      1.60000000000     -0.79473123500
3P  3  1  2.00      0.00000000000      1.60000000000     -0.29996179500
</PP_INFO>
  <PP_HEADER element="Si" pseudo_type="US" relativistic="scalar" is_ultrasoft="T" is_paw="F" is_coulomb="F" has_so="F" has_wfc="F" has_gipaw="F" core_correction="T" functional="PBE" z_valence="4.0" total_psenergy="-9.19868380872" wfc_cutoff="0.0" rho_cutoff="0.0" l_max="2" mesh_size="899" number_of_wfc="2" number_of_proj="6"/>
  <PP_MESH>
    <PP_R>
0.00000000000000E+00 1.09467068474000E-06 2.20773876668000E-06 3.33951343854000E-06 
4.49030908945000E-06 5.66044539229000E-06 6.85024739243000E-06 8.06004559807000E-06 
9.29017607207000E-06 1.05409805252000E-05 1.18128064113000E-05 1.31060070233000E-05 
1.44209415922000E-05 1.57579753858000E-05 1.71174798111000E-05 1.84998325169000E-05 
1.99054174990000E-05 2.13346252067000E-05 2.27878526514000E-05 2.42655035165000E-05 
2.57679882704000E-05 2.72957242794000E-05 2.88491359245000E-05 3.04286547189000E-05 
3.20347194281000E-05 3.36677761914000E-05 3.53282786462000E-05 3.70166880538000E-05 
3.87334734278000E-05 4.04791116640000E-05 4.22540876731000E-05 4.40588945154000E-05 
4.58940335378000E-05 4.77600145130000E-05 4.96573557809000E-05 5.15865843930000E-05 
5.35482362585000E-05 5.55428562934000E-05 5.75709985716000E-05 5.96332264790000E-05 
6.17301128700000E-05 6.38622402264000E-05 6.60302008196000E-05 6.82345968748000E-05 
7.04760407384000E-05 7.27551550481000E-05 7.50725729059000E-05 7.74289380538000E-05 
7.98249050529000E-05 8.22611394651000E-05 8.47383180376000E-05 8.72571288917000E-05 
8.98182717131000E-05 9.24224579470000E-05 9.50704109951000E-05 9.77628664170000E-05 
1.00500572134000E-04 1.03284288638000E-04 1.06114789202000E-04 1.08992860093000E-04 
1.11919300794000E-04 1.14894924224000E-04 1.17920556965000E-04 1.20997039490000E-04 
1.24125226396000E-04 1.27305986645000E-04 1.30540203801000E-04 1.33828776280000E-04 
1.37172617594000E-04 1.40572656610000E-04 1.44029837805000E-04 1.47545121529000E-04 
1.51119484273000E-04 1.54753918938000E-04 1.58449435113000E-04 1.62207059354000E-04 
1.66027835469000E-04 1.69912824810000E-04 1.73863106565000E-04 1.77879778061000E-04 
1.81963955065000E-04 1.86116772097000E-04 1.90339382744000E-04 1.94632959981000E-04 
1.98998696495000E-04 2.03437805019000E-04 2.07951518668000E-04 2.12541091280000E-04 
2.17207797766000E-04 2.21952934462000E-04 2.26777819494000E-04 2.31683793137000E-04 
2.36672218194000E-04 2.41744480371000E-04 2.46901988662000E-04 2.52146175741000E-04 
2.57478498361000E-04 2.62900437757000E-04 2.68413500057000E-04 2.74019216704000E-04 
2.79719144877000E-04 2.85514867926000E-04 2.91407995811000E-04 2.97400165551000E-04 
3.03493041675000E-04 3.09688316688000E-04 3.15987711539000E-04 3.22392976102000E-04 
3.28905889658000E-04 3.35528261390000E-04 3.42261930889000E-04 3.49108768663000E-04 
3.56070676655000E-04 3.63149588773000E-04 3.70347471426000E-04 3.77666324073000E-04 
3.85108179776000E-04 3.92675105764000E-04 4.00369204011000E-04 4.08192611815000E-04 
4.16147502395000E-04 4.24236085494000E-04 4.32460607994000E-04 4.40823354536000E-04 
4.49326648159000E-04 4.57972850944000E-04 4.66764364669000E-04 4.75703631479000E-04 
4.84793134561000E-04 4.94035398834000E-04 5.03432991654000E-04 5.12988523524000E-04 
5.22704648819000E-04 5.32584066526000E-04 5.42629520991000E-04 5.52843802683000E-04 
5.63229748968000E-04 5.73790244897000E-04 5.84528224010000E-04 5.95446669148000E-04 
6.06548613281000E-04 6.17837140356000E-04 6.29315386147000E-04 6.40986539128000E-04 
6.52853841363000E-04 6.64920589399000E-04 6.77190135190000E-04 6.89665887021000E-04 
7.02351310459000E-04 7.15249929315000E-04 7.28365326621000E-04 7.41701145626000E-04 
7.55261090812000E-04 7.69048928917000E-04 7.83068489985000E-04 7.97323668427000E-04 
8.11818424108000E-04 8.26556783442000E-04 8.41542840512000E-04 8.56780758209000E-04 
8.72274769385000E-04 8.88029178031000E-04 9.04048360475000E-04 9.20336766591000E-04 
9.36898921041000E-04 9.53739424532000E-04 9.70862955088000E-04 9.88274269355000E-04 
1.00597820392000E-03 1.02397967666000E-03 1.04228368810000E-03 1.06089532281000E-03 
1.07981975079000E-03 1.09906222897000E-03 1.11862810259000E-03 1.13852280674000E-03 
1.15875186787000E-03 1.17932090528000E-03 1.20023563273000E-03 1.22150186000000E-03 
1.24312549451000E-03 1.26511254297000E-03 1.28746911303000E-03 1.31020141499000E-03 
1.33331576353000E-03 1.35681857944000E-03 1.38071639145000E-03 1.40501583798000E-03 
1.42972366903000E-03 1.45484674806000E-03 1.48039205385000E-03 1.50636668250000E-03 
1.53277784933000E-03 1.55963289096000E-03 1.58693926729000E-03 1.61470456360000E-03 
1.64293649266000E-03 1.67164289684000E-03 1.70083175034000E-03 1.73051116135000E-03 
1.76068937435000E-03 1.79137477237000E-03 1.82257587933000E-03 1.85430136239000E-03 
1.88656003441000E-03 1.91936085633000E-03 1.95271293969000E-03 1.98662554919000E-03 
2.02110810521000E-03 2.05617018646000E-03 2.09182153263000E-03 2.12807204710000E-03 
2.16493179969000E-03 2.20241102947000E-03 2.24052014756000E-03 2.27926974008000E-03 
2.31867057106000E-03 2.35873358541000E-03 2.39946991203000E-03 2.44089086681000E-03 
2.48300795584000E-03 2.52583287858000E-03 2.56937753112000E-03 2.61365400948000E-03 
2.65867461296000E-03 2.70445184758000E-03 2.75099842953000E-03 2.79832728872000E-03 
2.84645157234000E-03 2.89538464858000E-03 2.94514011027000E-03 2.99573177868000E-03 
3.04717370738000E-03 3.09948018614000E-03 3.15266574486000E-03 3.20674515765000E-03 
3.26173344692000E-03 3.31764588754000E-03 3.37449801112000E-03 3.43230561026000E-03 
3.49108474302000E-03 3.55085173730000E-03 3.61162319544000E-03 3.67341599878000E-03 
3.73624731238000E-03 3.80013458980000E-03 3.86509557792000E-03 3.93114832186000E-03 
3.99831117004000E-03 4.06660277923000E-03 4.13604211978000E-03 4.20664848082000E-03 
4.27844147569000E-03 4.35144104735000E-03 4.42566747394000E-03 4.50114137437000E-03 
4.57788371411000E-03 4.65591581096000E-03 4.73525934101000E-03 4.81593634465000E-03 
4.89796923266000E-03 4.98138079249000E-03 5.06619419455000E-03 5.15243299867000E-03 
5.24012116063000E-03 5.32928303880000E-03 5.41994340096000E-03 5.51212743111000E-03 
5.60586073654000E-03 5.70116935486000E-03 5.79807976131000E-03 5.89661887607000E-03 
5.99681407175000E-03 6.09869318099000E-03 6.20228450420000E-03 6.30761681741000E-03 
6.41471938028000E-03 6.52362194420000E-03 6.63435476059000E-03 6.74694858929000E-03 
6.86143470706000E-03 6.97784491636000E-03 7.09621155409000E-03 7.21656750064000E-03 
7.33894618900000E-03 7.46338161402000E-03 7.58990834191000E-03 7.71856151979000E-03 
7.84937688548000E-03 7.98239077743000E-03 8.11764014480000E-03 8.25516255771000E-03 
8.39499621773000E-03 8.53717996844000E-03 8.68175330624000E-03 8.82875639133000E-03 
8.97823005882000E-03 9.13021583016000E-03 9.28475592458000E-03 9.44189327089000E-03 
9.60167151936000E-03 9.76413505386000E-03 9.92932900420000E-03 1.00972992586000E-02 
1.02680924767000E-02 1.04417561020000E-02 1.06183383755000E-02 1.07978883491000E-02 
1.09804558988000E-02 1.11660917391000E-02 1.13548474367000E-02 1.15467754249000E-02 
1.17419290183000E-02 1.19403624274000E-02 1.21421307740000E-02 1.23472901061000E-02 
1.25558974136000E-02 1.27680106446000E-02 1.29836887205000E-02 1.32029915535000E-02 
1.34259800623000E-02 1.36527161897000E-02 1.38832629193000E-02 1.41176842934000E-02 
1.43560454307000E-02 1.45984125439000E-02 1.48448529589000E-02 1.50954351329000E-02 
1.53502286738000E-02 1.56093043591000E-02 1.58727341559000E-02 1.61405912410000E-02 
1.64129500207000E-02 1.66898861520000E-02 1.69714765635000E-02 1.72577994764000E-02 
1.75489344269000E-02 1.78449622875000E-02 1.81459652901000E-02 1.84520270486000E-02 
1.87632325822000E-02 1.90796683387000E-02 1.94014222192000E-02 1.97285836016000E-02 
2.00612433664000E-02 2.03994939210000E-02 2.07434292263000E-02 2.10931448219000E-02 
2.14487378533000E-02 2.18103070987000E-02 2.21779529964000E-02 2.25517776724000E-02 
2.29318849694000E-02 2.33183804753000E-02 2.37113715523000E-02 2.41109673672000E-02 
2.45172789214000E-02 2.49304190818000E-02 2.53505026123000E-02 2.57776462053000E-02 
2.62119685147000E-02 2.66535901883000E-02 2.71026339017000E-02 2.75592243921000E-02 
2.80234884931000E-02 2.84955551699000E-02 2.89755555554000E-02 2.94636229858000E-02 
2.99598930388000E-02 3.04645035702000E-02 3.09775947530000E-02 3.14993091156000E-02 
3.20297915823000E-02 3.25691895125000E-02 3.31176527425000E-02 3.36753336268000E-02 
3.42423870803000E-02 3.48189706215000E-02 3.54052444161000E-02 3.60013713219000E-02 
3.66075169334000E-02 3.72238496282000E-02 3.78505406140000E-02 3.84877639756000E-02 
3.91356967235000E-02 3.97945188432000E-02 4.04644133451000E-02 4.11455663154000E-02 
4.18381669675000E-02 4.25424076950000E-02 4.32584841248000E-02 4.39865951717000E-02 
4.47269430934000E-02 4.54797335469000E-02 4.62451756454000E-02 4.70234820168000E-02 
4.78148688621000E-02 4.86195560163000E-02 4.94377670086000E-02 5.02697291252000E-02 
5.11156734720000E-02 5.19758350390000E-02 5.28504527654000E-02 5.37397696064000E-02 
5.46440325999000E-02 5.55634929361000E-02 5.64984060265000E-02 5.74490315752000E-02 
5.84156336509000E-02 5.93984807604000E-02 6.03978459232000E-02 6.14140067471000E-02 
6.24472455055000E-02 6.34978492159000E-02 6.45661097193000E-02 6.56523237617000E-02 
6.67567930761000E-02 6.78798244668000E-02 6.90217298940000E-02 7.01828265611000E-02 
7.13634370025000E-02 7.25638891729000E-02 7.37845165391000E-02 7.50256581722000E-02 
7.62876588415000E-02 7.75708691111000E-02 7.88756454364000E-02 8.02023502638000E-02 
8.15513521307000E-02 8.29230257688000E-02 8.43177522071000E-02 8.57359188789000E-02 
8.71779197282000E-02 8.86441553202000E-02 9.01350329520000E-02 9.16509667659000E-02 
9.31923778642000E-02 9.47596944268000E-02 9.63533518293000E-02 9.79737927647000E-02 
9.96214673658000E-02 1.01296833331000E-01 1.03000356049000E-01 1.04732508734000E-01 
1.06493772548000E-01 1.08284636744000E-01 1.10105598796000E-01 1.11957164537000E-01 
1.13839848304000E-01 1.15754173077000E-01 1.17700670624000E-01 1.19679881652000E-01 
1.21692355954000E-01 1.23738652564000E-01 1.25819339912000E-01 1.27934995978000E-01 
1.30086208459000E-01 1.32273574928000E-01 1.34497703000000E-01 1.36759210503000E-01 
1.39058725649000E-01 1.41396887206000E-01 1.43774344679000E-01 1.46191758487000E-01 
1.48649800151000E-01 1.51149152475000E-01 1.53690509740000E-01 1.56274577894000E-01 
1.58902074752000E-01 1.61573730190000E-01 1.64290286352000E-01 1.67052497854000E-01 
1.69861131996000E-01 1.72716968971000E-01 1.75620802085000E-01 1.78573437978000E-01 
1.81575696846000E-01 1.84628412668000E-01 1.87732433441000E-01 1.90888621412000E-01 
1.94097853321000E-01 1.97361020642000E-01 2.00679029831000E-01 2.04052802578000E-01 
2.07483276065000E-01 2.10971403223000E-01 2.14518152999000E-01 2.18124510622000E-01 
2.21791477884000E-01 2.25520073409000E-01 2.29311332942000E-01 2.33166309635000E-01 
2.37086074341000E-01 2.41071715907000E-01 2.45124341482000E-01 2.49245076821000E-01 
2.53435066600000E-01 2.57695474731000E-01 2.62027484690000E-01 2.66432299838000E-01 
2.70911143766000E-01 2.75465260624000E-01 2.80095915474000E-01 2.84804394640000E-01 
2.89592006063000E-01 2.94460079665000E-01 2.99409967720000E-01 3.04443045229000E-01 
3.09560710301000E-01 3.14764384544000E-01 3.20055513455000E-01 3.25435566827000E-01 
3.30906039153000E-01 3.36468450045000E-01 3.42124344651000E-01 3.47875294091000E-01 
3.53722895888000E-01 3.59668774412000E-01 3.65714581335000E-01 3.71861996087000E-01 
3.78112726322000E-01 3.84468508394000E-01 3.90931107840000E-01 3.97502319867000E-01 
4.04183969855000E-01 4.10977913860000E-01 4.17886039132000E-01 4.24910264641000E-01 
4.32052541603000E-01 4.39314854032000E-01 4.46699219284000E-01 4.54207688617000E-01 
4.61842347766000E-01 4.69605317520000E-01 4.77498754308000E-01 4.85524850803000E-01 
4.93685836527000E-01 5.01983978473000E-01 5.10421581735000E-01 5.19000990144000E-01 
5.27724586926000E-01 5.36594795358000E-01 5.45614079443000E-01 5.54784944596000E-01 
5.64109938339000E-01 5.73591651007000E-01 5.83232716472000E-01 5.93035812867000E-01 
6.03003663340000E-01 6.13139036801000E-01 6.23444748697000E-01 6.33923661792000E-01 
6.44578686962000E-01 6.55412784006000E-01 6.66428962464000E-01 6.77630282457000E-01 
6.89019855534000E-01 7.00600845540000E-01 7.12376469489000E-01 7.24349998466000E-01 
7.36524758526000E-01 7.48904131626000E-01 7.61491556560000E-01 7.74290529917000E-01 
7.87304607048000E-01 8.00537403060000E-01 8.13992593813000E-01 8.27673916947000E-01 
8.41585172918000E-01 8.55730226053000E-01 8.70113005624000E-01 8.84737506941000E-01 
8.99607792458000E-01 9.14727992907000E-01 9.30102308440000E-01 9.45735009799000E-01 
9.61630439503000E-01 9.77793013049000E-01 9.94227220146000E-01 1.01093762596000E+00 
1.02792887237000E+00 1.04520567928000E+00 1.06277284592000E+00 1.08063525217000E+00 
1.09879785991000E+00 1.11726571444000E+00 1.13604394584000E+00 1.15513777040000E+00 
1.17455249208000E+00 1.19429350399000E+00 1.21436628987000E+00 1.23477642561000E+00 
1.25552958085000E+00 1.27663152046000E+00 1.29808810625000E+00 1.31990529850000E+00 
1.34208915770000E+00 1.36464584616000E+00 1.38758162978000E+00 1.41090287976000E+00 
1.43461607437000E+00 1.45872780077000E+00 1.48324475680000E+00 1.50817375290000E+00 
1.53352171394000E+00 1.55929568119000E+00 1.58550281425000E+00 1.61215039304000E+00 
1.63924581985000E+00 1.66679662136000E+00 1.69481045073000E+00 1.72329508978000E+00 
1.75225845108000E+00 1.78170858020000E+00 1.81165365792000E+00 1.84210200252000E+00 
1.87306207205000E+00 1.90454246673000E+00 1.93655193134000E+00 1.96909935757000E+00 
2.00219378661000E+00 2.03584441156000E+00 2.07006058002000E+00 2.10485179672000E+00 
2.14022772610000E+00 2.17619819504000E+00 2.21277319556000E+00 2.24996288763000E+00 
2.28777760194000E+00 2.32622784284000E+00 2.36532429119000E+00 2.40507780737000E+00 
2.44549943428000E+00 2.48660040040000E+00 2.52839212294000E+00 2.57088621098000E+00 
2.61409446869000E+00 2.65802889867000E+00 2.70270170518000E+00 2.74812529765000E+00 
2.79431229401000E+00 2.84127552430000E+00 2.88902803415000E+00 2.93758308846000E+00 
2.98695417505000E+00 3.03715500844000E+00 3.08819953361000E+00 3.14010192994000E+00 
3.19287661510000E+00 3.24653824904000E+00 3.30110173814000E+00 3.35658223926000E+00 
3.41299516401000E+00 3.47035618301000E+00 3.52868123025000E+00 3.58798650751000E+00 
3.64828848885000E+00 3.70960392520000E+00 3.77194984904000E+00 3.83534357908000E+00 
3.89980272508000E+00 3.96534519279000E+00 4.03198918887000E+00 4.09975322596000E+00 
4.16865612785000E+00 4.23871703467000E+00 4.30995540824000E+00 4.38239103745000E+00 
4.45604404378000E+00 4.53093488687000E+00 4.60708437021000E+00 4.68451364692000E+00 
4.76324422564000E+00 4.84329797648000E+00 4.92469713710000E+00 5.00746431891000E+00 
5.09162251332000E+00 5.17719509815000E+00 5.26420584412000E+00 5.35267892142000E+00 
5.44263890650000E+00 5.53411078881000E+00 5.62711997779000E+00 5.72169230993000E+00 
5.81785405593000E+00 5.91563192800000E+00 6.01505308730000E+00 6.11614515145000E+00 
6.21893620222000E+00 6.32345479336000E+00 6.42972995847000E+00 6.53779121912000E+00 
6.64766859301000E+00 6.75939260235000E+00 6.87299428231000E+00 6.98850518963000E+00 
7.10595741143000E+00 7.22538357406000E+00 7.34681685225000E+00 7.47029097822000E+00 
7.59584025116000E+00 7.72349954665000E+00 7.85330432644000E+00 7.98529064824000E+00 
8.11949517578000E+00 8.25595518894000E+00 8.39470859417000E+00 8.53579393498000E+00 
8.67925040263000E+00 8.82511784707000E+00 8.97343678797000E+00 9.12424842600000E+00 
9.27759465425000E+00 9.43351806987000E+00 9.59206198593000E+00 9.75327044342000E+00 
9.91718822351000E+00 1.00838608600000E+01 1.02533346518000E+01 1.04256566762000E+01 
1.06008748015000E+01 1.07790377004000E+01 1.09601948640000E+01 1.11443966146000E+01 
1.13316941207000E+01 1.15221394106000E+01 1.17157853870000E+01 1.19126858416000E+01 
1.21128954703000E+01 1.23164698882000E+01 1.25234656450000E+01 1.27339402409000E+01 
1.29479521424000E+01 1.31655607986000E+01 1.33868266577000E+01 1.36118111840000E+01 
1.38405768746000E+01 1.40731872770000E+01 1.43097070066000E+01 1.45502017650000E+01 
1.47947383577000E+01 1.50433847132000E+01 1.52962099015000E+01 1.55532841534000E+01 
1.58146788802000E+01 1.60804666930000E+01 1.63507214237000E+01 1.66255181447000E+01 
1.69049331901000E+01 1.71890441772000E+01 1.74779300273000E+01 1.77716709885000E+01 
1.80703486573000E+01 1.83740460017000E+01 1.86828473840000E+01 1.89968385844000E+01 
1.93161068246000E+01 1.96407407923000E+01 1.99708306658000E+01 2.03064681387000E+01 
2.06477464459000E+01 2.09947603891000E+01 2.13476063632000E+01 2.17063823834000E+01 
2.20711881119000E+01 2.24421248860000E+01 2.28192957461000E+01 2.32028054642000E+01 
2.35927605734000E+01 2.39892693970000E+01 2.43924420789000E+01 2.48023906141000E+01 
2.52192288798000E+01 2.56430726671000E+01 2.60740397131000E+01 2.65122497337000E+01 
2.69578244567000E+01 2.74108876557000E+01 2.78715651844000E+01 2.83399850120000E+01 
2.88162772579000E+01 2.93005742287000E+01 2.97930104543000E+01 3.02937227259000E+01 
3.08028501333000E+01 3.13205341042000E+01 3.18469184429000E+01 3.23821493707000E+01 
3.29263755663000E+01 3.34797482072000E+01 3.40424210115000E+01 3.46145502808000E+01 
3.51962949437000E+01 3.57878165995000E+01 3.63892795638000E+01 3.70008509133000E+01 
3.76227005330000E+01 3.82550011629000E+01 3.88979284460000E+01 3.95516609775000E+01 
4.02163803539000E+01 4.08922712237000E+01 4.15795213388000E+01 4.22783216064000E+01 
4.29888661422000E+01 4.37113523241000E+01 4.44459808476000E+01 4.51929557807000E+01 
4.59524846214000E+01 4.67247783547000E+01 4.75100515116000E+01 4.83085222286000E+01 
4.91204123084000E+01 4.99459472810000E+01 5.07853564671000E+01 5.16388730414000E+01 
5.25067340971000E+01 5.33891807126000E+01 5.42864580173000E+01 5.51988152609000E+01 
5.61265058818000E+01 5.70697875778000E+01 5.80289223775000E+01 5.90041767136000E+01 
5.99958214963000E+01 6.10041321889000E+01 6.20293888840000E+01 6.30718763819000E+01 
6.41318842692000E+01 6.52097069992000E+01 6.63056439741000E+01 6.74199996278000E+01 
6.85530835109000E+01 6.97052103760000E+01 7.08767002659000E+01 7.20678786020000E+01 
7.32790762747000E+01 7.45106297356000E+01 7.57628810909000E+01 7.70361781962000E+01 
7.83308747533000E+01 7.96473304085000E+01 8.09859108524000E+01 8.23469879215000E+01 
8.37309397015000E+01 8.51381506324000E+01 8.65690116150000E+01 8.80239201201000E+01 
8.95032802982000E+01 9.10075030922000E+01 9.25370063515000E+01 9.40922149479000E+01 
9.56735608937000E+01 9.72814834620000E+01 9.89164293082000E+01 1.00578852594000E+02 
1.02269215116000E+02 1.03987986428000E+02 1.05735643979000E+02 1.07512673240000E+02 
1.09319567842000E+02 1.11156829711000E+02 1.13024969211000E+02 1.14924505280000E+02 
1.16855965580000E+02 1.18819886639000E+02 1.20816814005000E+02 1.22847302392000E+02 
1.24911915838000E+02 1.27011227860000E+02 1.29145821612000E+02 1.31316290053000E+02 
1.33523236104000E+02 1.35767272818000E+02 1.38049023556000E+02 1.40369122150000E+02 
1.42728213087000E+02 1.45126951687000E+02 1.47566004279000E+02 1.50046048396000E+02 
1.52567772953000E+02 1.55131878446000E+02 1.57739077143000E+02 1.60390093283000E+02 
1.63085663276000E+02 1.65826535909000E+02 1.68613472553000E+02 1.71447247375000E+02 
1.74328647553000E+02 1.77258473494000E+02 1.80237539058000E+02 1.83266671782000E+02 
1.86346713112000E+02 1.89478518633000E+02 1.92662958313000E+02 1.95900916739000E+02 
1.99193293363000E+02 2.02541002757000E+02 2.05944974860000E+02 
</PP_R>
    <PP_RAB>
1.08557376852000E-06 1.10381827993000E-06 1.12236941463000E-06 1.14123232583000E-06 
1.16041225334000E-06 1.17991452506000E-06 1.19974455839000E-06 1.21990786182000E-06 
1.24041003639000E-06 1.26125677727000E-06 1.28245387537000E-06 1.30400721891000E-06 
1.32592279505000E-06 1.34820669161000E-06 1.37086509870000E-06 1.39390431047000E-06 
1.41733072683000E-06 1.44115085530000E-06 1.46537131271000E-06 1.48999882713000E-06 
1.51504023969000E-06 1.54050250651000E-06 1.56639270059000E-06 1.59271801383000E-06 
1.61948575899000E-06 1.64670337171000E-06 1.67437841262000E-06 1.70251856941000E-06 
1.73113165898000E-06 1.76022562958000E-06 1.78980856307000E-06 1.81988867711000E-06 
1.85047432748000E-06 1.88157401040000E-06 1.91319636487000E-06 1.94535017507000E-06 
1.97804437283000E-06 2.01128804007000E-06 2.04509041138000E-06 2.07946087650000E-06 
2.11440898302000E-06 2.14994443896000E-06 2.18607711551000E-06 2.22281704976000E-06 
2.26017444749000E-06 2.29815968599000E-06 2.33678331695000E-06 2.37605606941000E-06 
2.41598885273000E-06 2.45659275960000E-06 2.49787906914000E-06 2.53985925004000E-06 
2.58254496374000E-06 2.62594806763000E-06 2.67008061844000E-06 2.71495487547000E-06 
2.76058330409000E-06 2.80697857916000E-06 2.85415358854000E-06 2.90212143673000E-06 
2.95089544841000E-06 3.00048917225000E-06 3.05091638460000E-06 3.10219109334000E-06 
3.15432754178000E-06 3.20734021259000E-06 3.26124383187000E-06 3.31605337318000E-06 
3.37178406174000E-06 3.42845137868000E-06 3.48607106526000E-06 3.54465912733000E-06 
3.60423183973000E-06 3.66480575082000E-06 3.72639768707000E-06 3.78902475775000E-06 
3.85270435967000E-06 3.91745418202000E-06 3.98329221128000E-06 4.05023673620000E-06 
4.11830635293000E-06 4.18751997013000E-06 4.25789681425000E-06 4.32945643486000E-06 
4.40221871010000E-06 4.47620385217000E-06 4.55143241299000E-06 4.62792528985000E-06 
4.70570373128000E-06 4.78478934288000E-06 4.86520409341000E-06 4.94697032080000E-06 
5.03011073842000E-06 5.11464844137000E-06 5.20060691289000E-06 5.28801003087000E-06 
5.37688207454000E-06 5.46724773113000E-06 5.55913210280000E-06 5.65256071359000E-06 
5.74755951647000E-06 5.84415490061000E-06 5.94237369870000E-06 6.04224319436000E-06 
6.14379112976000E-06 6.24704571331000E-06 6.35203562751000E-06 6.45879003689000E-06 
6.56733859614000E-06 6.67771145835000E-06 6.78993928334000E-06 6.90405324624000E-06 
7.02008504610000E-06 7.13806691473000E-06 7.25803162561000E-06 7.38001250307000E-06 
7.50404343145000E-06 7.63015886459000E-06 7.75839383537000E-06 7.88878396543000E-06 
8.02136547510000E-06 8.15617519343000E-06 8.29325056841000E-06 8.43262967744000E-06 
8.57435123783000E-06 8.71845461758000E-06 8.86497984634000E-06 9.01396762650000E-06 
9.16545934453000E-06 9.31949708241000E-06 9.47612362941000E-06 9.63538249391000E-06 
9.79731791550000E-06 9.96197487729000E-06 1.01293991184000E-05 1.02996371466000E-05 
1.04727362513000E-05 1.06487445168000E-05 1.08277108354000E-05 1.10096849210000E-05 
1.11947173232000E-05 1.13828594411000E-05 1.15741635376000E-05 1.17686827540000E-05 
1.19664711246000E-05 1.21675835918000E-05 1.23720760217000E-05 1.25800052189000E-05 
1.27914289428000E-05 1.30064059238000E-05 1.32249958789000E-05 1.34472595290000E-05 
1.36732586154000E-05 1.39030559171000E-05 1.41367152683000E-05 1.43743015756000E-05 
1.46158808370000E-05 1.48615201592000E-05 1.51112877771000E-05 1.53652530720000E-05 
1.56234865916000E-05 1.58860600690000E-05 1.61530464431000E-05 1.64245198784000E-05 
1.67005557859000E-05 1.69812308440000E-05 1.72666230200000E-05 1.75568115911000E-05 
1.78518771672000E-05 1.81519017129000E-05 1.84569685702000E-05 1.87671624820000E-05 
1.90825696151000E-05 1.94032775846000E-05 1.97293754783000E-05 2.00609538809000E-05 
2.03981048997000E-05 2.07409221899000E-05 2.10895009807000E-05 2.14439381019000E-05 
2.18043320104000E-05 2.21707828180000E-05 2.25433923190000E-05 2.29222640183000E-05 
2.33075031606000E-05 2.36992167592000E-05 2.40975136260000E-05 2.45025044014000E-05 
2.49143015857000E-05 2.53330195695000E-05 2.57587746661000E-05 2.61916851434000E-05 
2.66318712573000E-05 2.70794552845000E-05 2.75345615567000E-05 2.79973164952000E-05 
2.84678486462000E-05 2.89462887159000E-05 2.94327696075000E-05 2.99274264578000E-05 
3.04303966744000E-05 3.09418199747000E-05 3.14618384240000E-05 3.19905964751000E-05 
3.25282410087000E-05 3.30749213740000E-05 3.36307894301000E-05 3.41959995884000E-05 
3.47707088554000E-05 3.53550768761000E-05 3.59492659790000E-05 3.65534412201000E-05 
3.71677704300000E-05 3.77924242596000E-05 3.84275762278000E-05 3.90734027698000E-05 
3.97300832861000E-05 4.03978001921000E-05 4.10767389690000E-05 4.17670882153000E-05 
4.24690396991000E-05 4.31827884115000E-05 4.39085326205000E-05 4.46464739265000E-05 
4.53968173179000E-05 4.61597712282000E-05 4.69355475941000E-05 4.77243619138000E-05 
4.85264333076000E-05 4.93419845782000E-05 5.01712422729000E-05 5.10144367465000E-05 
5.18718022249000E-05 5.27435768708000E-05 5.36300028495000E-05 5.45313263960000E-05 
5.54477978838000E-05 5.63796718942000E-05 5.73272072871000E-05 5.82906672729000E-05 
5.92703194856000E-05 6.02664360569000E-05 6.12792936925000E-05 6.23091737481000E-05 
6.33563623082000E-05 6.44211502653000E-05 6.55038334005000E-05 6.66047124662000E-05 
6.77240932692000E-05 6.88622867558000E-05 7.00196090981000E-05 7.11963817822000E-05 
7.23929316967000E-05 7.36095912244000E-05 7.48466983341000E-05 7.61045966747000E-05 
7.73836356703000E-05 7.86841706178000E-05 8.00065627854000E-05 8.13511795127000E-05 
8.27183943129000E-05 8.41085869767000E-05 8.55221436778000E-05 8.69594570797000E-05 
8.84209264456000E-05 8.99069577485000E-05 9.14179637845000E-05 9.29543642871000E-05 
9.45165860441000E-05 9.61050630162000E-05 9.77202364570000E-05 9.93625550363000E-05 
1.01032474964000E-04 1.02730460118000E-04 1.04456982172000E-04 1.06212520725000E-04 
1.07997563440000E-04 1.09812606172000E-04 1.11658153112000E-04 1.13534716923000E-04 
1.15442818886000E-04 1.17382989041000E-04 1.19355766337000E-04 1.21361698779000E-04 
1.23401343585000E-04 1.25475267336000E-04 1.27584046134000E-04 1.29728265765000E-04 
1.31908521860000E-04 1.34125420059000E-04 1.36379576182000E-04 1.38671616397000E-04 
1.41002177397000E-04 1.43371906576000E-04 1.45781462206000E-04 1.48231513624000E-04 
1.50722741416000E-04 1.53255837605000E-04 1.55831505845000E-04 1.58450461617000E-04 
1.61113432425000E-04 1.63821158000000E-04 1.66574390505000E-04 1.69373894746000E-04 
1.72220448380000E-04 1.75114842134000E-04 1.78057880027000E-04 1.81050379587000E-04 
1.84093172082000E-04 1.87187102754000E-04 1.90333031047000E-04 1.93531830850000E-04 
1.96784390740000E-04 2.00091614226000E-04 2.03454420002000E-04 2.06873742203000E-04 
2.10350530663000E-04 2.13885751178000E-04 2.17480385777000E-04 2.21135432993000E-04 
2.24851908140000E-04 2.28630843596000E-04 2.32473289090000E-04 2.36380311993000E-04 
2.40352997613000E-04 2.44392449500000E-04 2.48499789750000E-04 2.52676159318000E-04 
2.56922718332000E-04 2.61240646420000E-04 2.65631143034000E-04 2.70095427785000E-04 
2.74634740780000E-04 2.79250342969000E-04 2.83943516493000E-04 2.88715565042000E-04 
2.93567814216000E-04 2.98501611893000E-04 3.03518328603000E-04 3.08619357912000E-04 
3.13806116804000E-04 3.19080046081000E-04 3.24442610755000E-04 3.29895300463000E-04 
3.35439629875000E-04 3.41077139119000E-04 3.46809394207000E-04 3.52637987467000E-04 
3.58564537991000E-04 3.64590692081000E-04 3.70718123708000E-04 3.76948534975000E-04 
3.83283656592000E-04 3.89725248357000E-04 3.96275099641000E-04 4.02935029889000E-04 
4.09706889125000E-04 4.16592558466000E-04 4.23593950640000E-04 4.30713010524000E-04 
4.37951715680000E-04 4.45312076907000E-04 4.52796138797000E-04 4.60405980303000E-04 
4.68143715320000E-04 4.76011493268000E-04 4.84011499691000E-04 4.92145956866000E-04 
5.00417124415000E-04 5.08827299939000E-04 5.17378819651000E-04 5.26074059029000E-04 
5.34915433473000E-04 5.43905398977000E-04 5.53046452811000E-04 5.62341134215000E-04 
5.71792025107000E-04 5.81401750793000E-04 5.91172980704000E-04 6.01108429133000E-04 
6.11210855991000E-04 6.21483067573000E-04 6.31927917336000E-04 6.42548306695000E-04 
6.53347185826000E-04 6.64327554488000E-04 6.75492462854000E-04 6.86845012358000E-04 
6.98388356560000E-04 7.10125702018000E-04 7.22060309182000E-04 7.34195493297000E-04 
7.46534625325000E-04 7.59081132883000E-04 7.71838501192000E-04 7.84810274048000E-04 
7.98000054804000E-04 8.11411507374000E-04 8.25048357246000E-04 8.38914392522000E-04 
8.53013464969000E-04 8.67349491085000E-04 8.81926453193000E-04 8.96748400541000E-04 
9.11819450434000E-04 9.27143789371000E-04 9.42725674210000E-04 9.58569433355000E-04 
9.74679467950000E-04 9.91060253109000E-04 1.00771633916000E-03 1.02465235289000E-03 
1.04187299886000E-03 1.05938306070000E-03 1.07718740242000E-03 1.09529096980000E-03 
1.11369879170000E-03 1.13241598155000E-03 1.15144773867000E-03 1.17079934979000E-03 
1.19047619048000E-03 1.21048372665000E-03 1.23082751609000E-03 1.25151320997000E-03 
1.27254655446000E-03 1.29393339229000E-03 1.31567966438000E-03 1.33779141150000E-03 
1.36027477595000E-03 1.38313600325000E-03 1.40638144389000E-03 1.43001755508000E-03 
1.45405090257000E-03 1.47848816244000E-03 1.50333612297000E-03 1.52860168653000E-03 
1.55429187151000E-03 1.58041381422000E-03 1.60697477092000E-03 1.63398211985000E-03 
1.66144336320000E-03 1.68936612928000E-03 1.71775817459000E-03 1.74662738600000E-03 
1.77598178291000E-03 1.80582951951000E-03 1.83617888704000E-03 1.86703831606000E-03 
1.89841637884000E-03 1.93032179172000E-03 1.96276341750000E-03 1.99575026796000E-03 
2.02929150634000E-03 2.06339644984000E-03 2.09807457230000E-03 2.13333550673000E-03 