<?xml version="1.0" encoding="UTF-8"?>
<UPF version="2.0.1">
  <PP_INFO><![CDATA[
Generated using "atomic" code by A. Dal Corso  v.6.3MaX
Author: ADC
Generation date: 23May2022
Pseudopotential type: USPP
Element: Sn
Functional: PBE
    Suggested minimum cutoff for wavefunctions:  47. Ry
    Suggested minimum cutoff for charge density: 250. Ry
    The Pseudo was generated with a Scalar-Relativistic Calculation
    Local Potential by smoothing AE potential with Bessel fncs, cutoff radius:   1.9000
    Pseudopotential contains additional information for GIPAW reconstruction.
    Valence configuration:
    nl pn  l   occ       Rcut    Rcut US       E pseu
    5S  1  0  2.00      1.800      2.000    -0.775327
    5P  2  1  2.00      2.000      2.300    -0.271510
    4D  3  2 10.00      1.300      1.600    -1.899143
    Generation configuration:
    5S  1  0  2.00      1.800      2.000    -0.775325
    5S  1  0  0.00      1.800      2.000     3.000000
    5P  2  1  2.00      2.000      2.300    -0.271510
    5P  2  1  0.00      2.000      2.300     6.000000
    4D  3  2 10.00      1.300      1.600    -1.899142
    4D  3  2  0.00      1.300      1.600     4.500000
    Pseudization used: troullier-martins
]]>
    <PP_INPUTFILE><![CDATA[
 &input
   title='Sn',
   zed=50.,
   rel=1,
   config='[Kr] 5s2 5p2 4d10',
   iswitch=3,
   dft='PBE'
 /
 &inputp
   lpaw=.false.,
   pseudotype=3,
   file_pseudopw='Sn.pbe-dn-rrkjus_psl.1.0.0.UPF',
   author='ADC',
   lloc=-1,
   rcloc=1.9,
   which_augfun='PSQ',
   rmatch_augfun_nc=.true.,
   nlcc=.true.,
   new_core_ps=.true.,
   rcore=1.2,
   tm=.true.
 /
6
5S  1  0  2.00  0.00  1.80  2.00  0.0
5S  1  0  0.00  3.00  1.80  2.00  0.0
5P  2  1  2.00  0.00  2.00  2.30  0.0
5P  2  1  0.00  6.00  2.00  2.30  0.0
4D  3  2 10.00  0.00  1.30  1.60  0.0
4D  3  2  0.00  4.50  1.30  1.60  0.0
]]></PP_INPUTFILE>
  </PP_INFO>
  <!--
 END OF HUMAN READABLE SECTION 
-->
  <PP_HEADER generated="Generated using &quot;atomic&quot; code by A. Dal Corso  v.6.3MaX" author="ADC" date="23May2022" comment="" element="Sn" pseudo_type="USPP" relativistic="scalar" is_ultrasoft="true" is_paw="false" is_coulomb="false" has_so="false" has_wfc="false" has_gipaw="true" paw_as_gipaw="false" core_correction="true" functional="PBE" z_valence="1.400000000000e1" total_psenergy="-1.627530830037e2" wfc_cutoff="4.707425711177e1" rho_cutoff="2.499087566647e2" l_max="2" l_max_rho="4" l_local="-1" mesh_size="1243" number_of_wfc="3" number_of_proj="6"/>
  <PP_MESH dx="1.250000000000e-2" mesh="1243" xmin="-7.000000000000e0" rmax="1.000000000000e2" zmesh="5.000000000000e1">
    <PP_R>
      1.823763931109032e-5 1.846704057338044e-5 1.869932734833164e-5 1.893453593122508e-5
      1.917270307388039e-5 1.941386599039818e-5 1.965806236297477e-5 1.990533034779023e-5
      2.015570858097021e-5 2.040923618462309e-5 2.066595277295274e-5 2.092589845844837e-5
      2.118911385815220e-5 2.145564010000593e-5 2.172551882927716e-5 2.199879221506636e-5
      2.227550295689606e-5 2.255569429138265e-5 2.283940999899215e-5 2.312669441088115e-5
      2.341759241582349e-5 2.371214946722426e-5 2.401041159022202e-5 2.431242538888029e-5
      2.461823805346962e-5 2.492789736784100e-5 2.524145171689229e-5 2.555895009412849e-5
      2.588044210931696e-5 2.620597799623920e-5 2.653560862053983e-5 2.686938548767453e-5
      2.720736075095788e-5 2.754958721971235e-5 2.789611836751997e-5 2.824700834057763e-5
      2.860231196615748e-5 2.896208476117391e-5 2.932638294085806e-5 2.969526342754174e-5
      3.006878385955145e-5 3.044700260021464e-5 3.082997874697901e-5 3.121777214064664e-5
      3.161044337472434e-5 3.200805380489129e-5 3.241066555858613e-5 3.281834154471452e-5
      3.323114546347869e-5 3.364914181633083e-5 3.407239591605148e-5 3.450097389695484e-5
      3.493494272522240e-5 3.537437020936641e-5 3.581932501082539e-5 3.626987665469230e-5
      3.672609554057814e-5 3.718805295361202e-5 3.765582107557955e-5 3.812947299620153e-5
      3.860908272455419e-5 3.909472520063334e-5 3.958647630706393e-5 4.008441288095679e-5
      4.058861272591469e-5 4.109915462418917e-5 4.161611834899059e-5 4.213958467695268e-5
      4.266963540075416e-5 4.320635334189909e-5 4.374982236365771e-5 4.430012738417034e-5
      4.485735438971607e-5 4.542159044814814e-5 4.599292372249874e-5 4.657144348475428e-5
      4.715724012980466e-5 4.775040518956747e-5 4.835103134729007e-5 4.895921245203166e-5
      4.957504353332717e-5 5.019862081603597e-5 5.083004173537715e-5 5.146940495215400e-5
      5.211681036816996e-5 5.277235914183843e-5 5.343615370398901e-5 5.410829777387251e-5
      5.478889637536738e-5 5.547805585338976e-5 5.617588389051025e-5 5.688248952377934e-5
      5.759798316176486e-5 5.832247660180335e-5 5.905608304746893e-5 5.979891712626120e-5
      6.055109490751630e-5 6.131273392054287e-5 6.208395317298617e-5 6.286487316942361e-5
      6.365561593019333e-5 6.445630501046052e-5 6.526706551952297e-5 6.608802414035964e-5
      6.691930914942543e-5 6.776105043669423e-5 6.861337952595469e-5 6.947642959536107e-5
      7.035033549824257e-5 7.123523378417458e-5 7.213126272031461e-5 7.303856231300686e-5
      7.395727432965864e-5 7.488754232089160e-5 7.582951164297215e-5 7.678332948052326e-5
      7.774914486952262e-5 7.872710872058965e-5 7.971737384256581e-5 8.072009496639117e-5
      8.173542876928133e-5 8.276353389920875e-5 8.380457099969158e-5 8.485870273489480e-5
      8.592609381504680e-5 8.700691102217538e-5 8.810132323616813e-5 8.920950146116004e-5
      9.033161885225333e-5 9.146785074257346e-5 9.261837467066492e-5 9.378337040823224e-5
      9.496301998822954e-5 9.615750773330372e-5 9.736702028459526e-5 9.859174663090101e-5
      9.983187813820436e-5 1.010876085795763e-4 1.023591341654530e-4 1.036466535742945e-4
      1.049503679836277e-4 1.062704811014815e-4 1.076071991982164e-4 1.089607311387545e-4
      1.103312884152154e-4 1.117190851799620e-4 1.131243382790621e-4 1.145472672861717e-4
      1.159880945368428e-4 1.174470451632650e-4 1.189243471294419e-4 1.204202312668112e-4
      1.219349313103127e-4 1.234686839349100e-4 1.250217287925712e-4 1.265943085497149e-4
      1.281866689251277e-4 1.297990587283577e-4 1.314317298985923e-4 1.330849375440235e-4
      1.347589399817093e-4 1.364539987779366e-4 1.381703787890907e-4 1.399083482030402e-4
      1.416681785810425e-4 1.434501449001740e-4 1.452545255962978e-4 1.470816026075687e-4
      1.489316614184867e-4 1.508049911045055e-4 1.527018843771992e-4 1.546226376300014e-4
      1.565675509845155e-4 1.585369283374099e-4 1.605310774079032e-4 1.625503097858442e-4
      1.645949409804006e-4 1.666652904693561e-4 1.687616817490306e-4 1.708844423848269e-4
      1.730339040624127e-4 1.752104026395486e-4 1.774142781985652e-4 1.796458750995023e-4
      1.819055420339165e-4 1.841936320793628e-4 1.865105027545665e-4 1.888565160752842e-4
      1.912320386108701e-4 1.936374415415538e-4 1.960731007164366e-4 1.985393967122202e-4
      2.010367148926717e-4 2.035654454688374e-4 2.061259835600150e-4 2.087187292554901e-4
      2.113440876770531e-4 2.140024690422985e-4 2.166942887287231e-4 2.194199673386298e-4
      2.221799307648461e-4 2.249746102572733e-4 2.278044424902675e-4 2.306698696308725e-4
      2.335713394079090e-4 2.365093051819324e-4 2.394842260160725e-4 2.424965667477620e-4
      2.455467980613687e-4 2.486353965617419e-4 2.517628448486799e-4 2.549296315923414e-4
      2.581362516095975e-4 2.613832059413496e-4 2.646710019308188e-4 2.680001533028165e-4
      2.713711802440187e-4 2.747846094842429e-4 2.782409743787524e-4 2.817408149915948e-4
      2.852846781799851e-4 2.888731176797576e-4 2.925066941918844e-4 2.961859754700880e-4
      2.999115364095544e-4 3.036839591367589e-4 3.075038331004287e-4 3.113717551636419e-4
      3.152883296970898e-4 3.192541686735124e-4 3.232698917633175e-4 3.273361264314085e-4
      3.314535080352252e-4 3.356226799240192e-4 3.398442935393817e-4 3.441190085170276e-4
      3.484474927898703e-4 3.528304226923833e-4 3.572684830662808e-4 3.617623673675263e-4
      3.663127777746836e-4 3.709204252986376e-4 3.755860298936882e-4 3.803103205700451e-4
      3.850940355077386e-4 3.899379221719599e-4 3.948427374298556e-4 3.998092476687885e-4
      4.048382289160878e-4 4.099304669603051e-4 4.150867574739948e-4 4.203079061380405e-4
      4.255947287675435e-4 4.309480514392955e-4 4.363687106208554e-4 4.418575533012489e-4
      4.474154371233121e-4 4.530432305176994e-4 4.587418128385785e-4 4.645120745010316e-4
      4.703549171201821e-4 4.762712536520776e-4 4.822620085363375e-4 4.883281178406007e-4
      4.944705294067879e-4 5.006902029992030e-4 5.069881104544988e-4 5.133652358335288e-4
      5.198225755751070e-4 5.263611386517063e-4 5.329819467271096e-4 5.396860343160497e-4
      5.464744489458512e-4 5.533482513201117e-4 5.603085154844364e-4 5.673563289942621e-4
      5.744927930847886e-4 5.817190228430496e-4 5.890361473821458e-4 5.964453100176742e-4
      6.039476684463700e-4 6.115443949270018e-4 6.192366764635380e-4 6.270257149906177e-4
      6.349127275613591e-4 6.428989465375214e-4 6.509856197820686e-4 6.591740108541472e-4
      6.674653992065216e-4 6.758610803854912e-4 6.843623662333207e-4 6.929705850932205e-4
      7.016870820169007e-4 7.105132189747393e-4 7.194503750685933e-4 7.284999467472847e-4
      7.376633480248003e-4 7.469420107012325e-4 7.563373845865017e-4 7.658509377268931e-4
      7.754841566344401e-4 7.852385465191965e-4 7.951156315244264e-4 8.051169549647572e-4
      8.152440795673245e-4 8.254985877159511e-4 8.358820816983982e-4 8.463961839567261e-4
      8.570425373408035e-4 8.678228053650074e-4 8.787386724681484e-4 8.897918442766704e-4
      9.009840478711563e-4 9.123170320561883e-4 9.237925676336024e-4 9.354124476791794e-4
      9.471784878228187e-4 9.590925265322294e-4 9.711564254001994e-4 9.833720694354717e-4
      9.957413673572788e-4 1.008266251893587e-3 1.020948680083088e-3 1.033790633580988e-3
      1.046794118968648e-3 1.059961168067116e-3 1.073293838254603e-3 1.086794212787950e-3
      1.100464401128145e-3 1.114306539269928e-3 1.128322790075547e-3 1.142515343612706e-3
      1.156886417496770e-3 1.171438257237271e-3 1.186173136588774e-3 1.201093357906159e-3
      1.216201252504360e-3 1.231499181022645e-3 1.246989533793469e-3 1.262674731215967e-3
      1.278557224134151e-3 1.294639494219851e-3 1.310924054360487e-3 1.327413449051713e-3
      1.344110254794995e-3 1.361017080500204e-3 1.378136567893252e-3 1.395471391928873e-3
      1.413024261208593e-3 1.430797918403944e-3 1.448795140685029e-3 1.467018740154443e-3
      1.485471564286678e-3 1.504156496373048e-3 1.523076455972206e-3 1.542234399366334e-3
      1.561633320023063e-3 1.581276249063214e-3 1.601166255734412e-3 1.621306447890665e-3
      1.641699972477976e-3 1.662350016026051e-3 1.683259805146208e-3 1.704432607035538e-3
      1.725871729987410e-3 1.747580523908407e-3 1.769562380841746e-3 1.791820735497294e-3
      1.814359065788251e-3 1.837180893374578e-3 1.860289784213270e-3 1.883689349115534e-3
      1.907383244310993e-3 1.931375172018977e-3 1.955668881027001e-3 1.980268167276526e-3
      2.005176874456075e-3 2.030398894601822e-3 2.055938168705729e-3 2.081798687331333e-3
      2.107984491237287e-3 2.134499672008724e-3 2.161348372696586e-3 2.188534788464980e-3
      2.216063167246679e-3 2.243937810406875e-3 2.272163073415276e-3 2.300743366526649e-3
      2.329683155469940e-3 2.358986962146052e-3 2.388659365334393e-3 2.418705001408334e-3
      2.449128565059639e-3 2.479934810032026e-3 2.511128549863946e-3 2.542714658640711e-3
      2.574698071756085e-3 2.607083786683434e-3 2.639876863756605e-3 2.673082426960610e-3
      2.706705664732254e-3 2.740751830770849e-3 2.775226244859106e-3 2.810134293694364e-3
      2.845481431730273e-3 2.881273182029065e-3 2.917515137124548e-3 2.954212959895937e-3
      2.991372384452702e-3 3.028999217030534e-3 3.067099336898570e-3 3.105678697278060e-3
      3.144743326272553e-3 3.184299327809808e-3 3.224352882595538e-3 3.264910249079168e-3
      3.305977764431731e-3 3.347561845536051e-3 3.389668989989404e-3 3.432305777118777e-3
      3.475478869008903e-3 3.519195011543230e-3 3.563461035457970e-3 3.608283857409417e-3
      3.653670481054695e-3 3.699627998146085e-3 3.746163589639141e-3 3.793284526814706e-3
      3.840998172415084e-3 3.889311981794473e-3 3.938233504083882e-3 3.987770383370703e-3
      4.037930359893110e-3 4.088721271249482e-3 4.140151053623056e-3 4.192227743021956e-3
      4.244959476534863e-3 4.298354493602413e-3 4.352421137304660e-3 4.407167855664680e-3
      4.462603202968596e-3 4.518735841102218e-3 4.575574540904451e-3 4.633128183537778e-3
      4.691405761875957e-3 4.750416381909162e-3 4.810169264166843e-3 4.870673745158416e-3
      4.931939278832131e-3 4.993975438052274e-3 5.056791916094929e-3 5.120398528162601e-3
      5.184805212917833e-3 5.250022034036148e-3 5.316059181778535e-3 5.382926974583677e-3
      5.450635860680253e-3 5.519196419719465e-3 5.588619364428149e-3 5.658915542282661e-3
      5.730095937203802e-3 5.802171671273108e-3 5.875154006470659e-3 5.949054346434814e-3
      6.023884238244046e-3 6.099655374221186e-3 6.176379593760398e-3 6.254068885177078e-3
      6.332735387581067e-3 6.412391392773418e-3 6.493049347166995e-3 6.574721853731282e-3
      6.657421673961593e-3 6.741161729873090e-3 6.825955106019879e-3 6.911815051539492e-3
      6.998754982223109e-3 7.086788482611778e-3 7.175929308119036e-3 7.266191387180230e-3
      7.357588823428847e-3 7.450135897900262e-3 7.543847071263142e-3 7.638736986078982e-3
      7.734820469090032e-3 7.832112533535980e-3 7.930628381499860e-3 8.030383406283336e-3
      8.131393194811986e-3 8.233673530070774e-3 8.337240393570166e-3 8.442109967843310e-3
      8.548298638974536e-3 8.655822999159749e-3 8.764699849298992e-3 8.874946201621597e-3
      8.986579282344433e-3 9.099616534363474e-3 9.214075619979322e-3 9.329974423656974e-3
      9.447331054820294e-3 9.566163850681681e-3 9.686491379107252e-3 9.808332441518129e-3
      9.931706075828195e-3 1.005663155941882e-2 1.018312841215099e-2 1.031121639941528e-2
      1.044091553522033e-2 1.057224608531995e-2 1.070522857037981e-2 1.083988376918374e-2
      1.097623272188053e-2 1.111429673327143e-2 1.125409737613912e-2 1.139565649461846e-2
      1.153899620760974e-2 1.168413891223472e-2 1.183110728733631e-2 1.197992429702212e-2
      1.213061319425267e-2 1.228319752447476e-2 1.243770112930041e-2 1.259414815023221e-2
      1.275256303243548e-2 1.291297052855784e-2 1.307539570259695e-2 1.323986393381668e-2
      1.340640092071279e-2 1.357503268502830e-2 1.374578557581944e-2 1.391868627357284e-2
      1.409376179437427e-2 1.427103949413006e-2 1.445054707284145e-2 1.463231257893284e-2
      1.481636441363436e-2 1.500273133541964e-2 1.519144246449938e-2 1.538252728737142e-2
      1.557601566142810e-2 1.577193781962154e-2 1.597032437518755e-2 1.617120632642906e-2
      1.637461506155965e-2 1.658058236360801e-2 1.678914041538415e-2 1.700032180450797e-2
      1.721415952850117e-2 1.743068699994317e-2 1.764993805169191e-2 1.787194694217032e-2
      1.809674836071920e-2 1.832437743301756e-2 1.855486972657107e-2 1.878826125626952e-2
      1.902458849001428e-2 1.926388835441644e-2 1.950619824056666e-2 1.975155600987764e-2
      2.000000000000000e-2 2.025156903081269e-2 2.050630241048859e-2 2.076423994163651e-2
      2.102542192752050e-2 2.128988917835719e-2 2.155768301769263e-2 2.182884528885904e-2
      2.210341836151296e-2 2.238144513825563e-2 2.266296906133653e-2 2.294803411944145e-2
      2.323668485456567e-2 2.352896636897382e-2 2.382492433224717e-2 2.412460498841961e-2
      2.442805516320340e-2 2.473532227130570e-2 2.504645432383730e-2 2.536149993581441e-2
      2.568050833375483e-2 2.600352936336983e-2 2.633061349735244e-2 2.666181184326407e-2
      2.699717615152008e-2 2.733675882347593e-2 2.768061291961503e-2 2.802879216783948e-2
      2.838135097186516e-2 2.873834441972251e-2 2.909982829236403e-2 2.946585907238032e-2
      2.983649395282542e-2 3.021179084615347e-2 3.059180839326760e-2 3.097660597268266e-2
      3.136624370980339e-2 3.176078248631888e-2 3.216028394971568e-2 3.256481052291022e-2
      3.297442541400256e-2 3.338919262615287e-2 3.380917696758184e-2 3.423444406169731e-2
      3.466506035734793e-2 3.510109313920597e-2 3.554261053828078e-2 3.598968154256418e-2
      3.644237600781020e-2 3.690076466845002e-2 3.736491914864445e-2 3.783491197347541e-2
      3.831081658027793e-2 3.879270733011511e-2 3.928065951939697e-2 3.977474939164583e-2
      4.027505414940954e-2 4.078165196632431e-2 4.129462199932975e-2 4.181404440103714e-2
      4.234000033225350e-2 4.287257197466319e-2 4.341184254366886e-2 4.395789630139406e-2
      4.451081856984938e-2 4.507069574426417e-2 4.563761530658608e-2 4.621166583915009e-2
      4.679293703851984e-2 4.738151972950283e-2 4.797750587934196e-2 4.858098861208577e-2
      4.919206222313901e-2 4.981082219399664e-2 5.043736520716299e-2 5.107178916125853e-2
      5.171419318631694e-2 5.236467765927404e-2 5.302334421965216e-2 5.369029578544144e-2
      5.436563656918089e-2 5.504947209424214e-2 5.574190921131703e-2 5.644305611511400e-2
      5.715302236126332e-2 5.787191888343522e-2 5.859985801067410e-2 5.933695348494937e-2
      6.008332047892864e-2 6.083907561397330e-2 6.160433697836063e-2 6.237922414573591e-2
      6.316385819379539e-2 6.395836172320548e-2 6.476285887675926e-2 6.557747535877346e-2
      6.640233845473102e-2 6.723757705116861e-2 6.808332165581636e-2 6.893970441798953e-2
      6.980685914923683e-2 7.068492134424948e-2 7.157402820203162e-2 7.247431864733882e-2
      7.338593335238492e-2 7.430901475882208e-2 7.524370709999829e-2 7.619015642349325e-2
      7.714851061393945e-2 7.811891941612910e-2 7.910153445841155e-2 8.009650927638658e-2
      8.110399933689351e-2 8.212416206230422e-2 8.315715685512021e-2 8.420314512287920e-2
      8.526229030337644e-2 8.633475789020089e-2 8.742071545859513e-2 8.852033269163876e-2
      8.963378140676127e-2 9.076123558259015e-2 9.190287138613380e-2 9.305886720030937e-2
      9.422940365181489e-2 9.541466363935205e-2 9.661483236220567e-2 9.783009734918013e-2
      9.906064848790226e-2 1.003066780544912e-1 1.015683807436016e-1 1.028459536988458e-1
      1.041395965435970e-1 1.054495114121818e-1 1.067759029814636e-1 1.081189785028233e-1
      1.094789478345441e-1 1.108560234746005e-1 1.122504205938631e-1 1.136623570697190e-1
      1.150920535201146e-1 1.165397333380296e-1 1.180056227263804e-1 1.194899507333664e-1
      1.209929492882590e-1 1.225148532376397e-1 1.240559003820974e-1 1.256163315133833e-1
      1.271963904520366e-1 1.287963240854813e-1 1.304163824066022e-1 1.320568185528087e-1
      1.337178888455854e-1 1.353998528305455e-1 1.371029733179836e-1 1.388275164239407e-1
      1.405737516117860e-1 1.423419517343199e-1 1.441323930764093e-1 1.459453553981567e-1
      1.477811219786130e-1 1.496399796600417e-1 1.515222188927370e-1 1.534281337804085e-1
      1.553580221261356e-1 1.573121854788978e-1 1.592909291806956e-1 1.612945624142575e-1
      1.633233982513529e-1 1.653777537017095e-1 1.674579497625453e-1 1.695643114687276e-1
      1.716971679435579e-1 1.738568524502000e-1 1.760437024437523e-1 1.782580596239748e-1
      1.805002699886826e-1 1.827706838878066e-1 1.850696560781378e-1 1.873975457787587e-1
      1.897547167271705e-1 1.921415372361302e-1 1.945583802511978e-1 1.970056234090116e-1
      1.994836490962945e-1 2.019928445096010e-1 2.045336017158202e-1 2.071063177134339e-1
      2.097113944945514e-1 2.123492391077202e-1 2.150202637215271e-1 2.177248856890030e-1
      2.204635276128321e-1 2.232366174113873e-1 2.260445883855918e-1 2.288878792866224e-1
      2.317669343844680e-1 2.346822035373442e-1 2.376341422619879e-1 2.406232118048308e-1
      2.436498792140695e-1 2.467146174126453e-1 2.498179052721363e-1 2.529602276875844e-1
      2.561420756532609e-1 2.593639463393826e-1 2.626263431698006e-1 2.659297759006558e-1
      2.692747607000342e-1 2.726618202286153e-1 2.760914837213419e-1 2.795642870701129e-1
      2.830807729075162e-1 2.866414906916190e-1 2.902469967918185e-1 2.938978545757788e-1
      2.975946344974570e-1 3.013379141862358e-1 3.051282785371836e-1 3.089663198024406e-1
      3.128526376837634e-1 3.167878394262286e-1 3.207725399131135e-1 3.248073617619772e-1
      3.288929354219412e-1 3.330298992722029e-1 3.372188997217810e-1 3.414605913105172e-1
      3.457556368113533e-1 3.501047073338858e-1 3.545084824292328e-1 3.589676501962131e-1
      3.634829073888613e-1 3.680549595253014e-1 3.726845209979803e-1 3.773723151852977e-1
      3.821190745646334e-1 3.869255408267964e-1 3.917924649919204e-1 3.967206075268066e-1
      4.017107384637534e-1 4.067636375208725e-1 4.118800942239207e-1 4.170609080296687e-1
      4.223068884508125e-1 4.276188551824668e-1 4.329976382302415e-1 4.384440780399295e-1
      4.439590256288333e-1 4.495433427187326e-1 4.551979018705346e-1 4.609235866206120e-1
      4.667212916188545e-1 4.725919227684649e-1 4.785363973675031e-1 4.845556442522196e-1
      4.906506039421875e-1 4.968222287872569e-1 5.030714831163680e-1 5.093993433882219e-1
      5.158067983438612e-1 5.222948491611598e-1 5.288645096112560e-1 5.355168062169632e-1
      5.422527784131582e-1 5.490734787092020e-1 5.559799728533939e-1 5.629733399994930e-1
      5.700546728753464e-1 5.772250779536207e-1 5.844856756246988e-1 5.918376003717396e-1
      5.992820009479405e-1 6.068200405560392e-1 6.144528970300587e-1 6.221817630193533e-1
      6.300078461749593e-1 6.379323693382900e-1 6.459565707322144e-1 6.540817041545235e-1
      6.623090391738462e-1 6.706398613280193e-1 6.790754723249510e-1 6.876171902460245e-1
      6.962663497520410e-1 7.050243022917709e-1 7.138924163131182e-1 7.228720774769387e-1
      7.319646888735608e-1 7.411716712420119e-1 7.504944631920201e-1 7.599345214287960e-1
      7.694933209806427e-1 7.791723554294404e-1 7.889731371440111e-1 7.988971975164386e-1
      8.089460872013486e-1 8.191213763581960e-1 8.294246548966163e-1 8.398575327248402e-1
      8.504216400012556e-1 8.611186273891192e-1 8.719501663144701e-1 8.829179492273058e-1
      8.940236898660171e-1 9.052691235251753e-1 9.166560073266703e-1 9.281861204942595e-1
      9.398612646315868e-1 9.516832640036741e-1 9.636539658219764e-1 9.757752405330093e-1
      9.880489821106037e-1 1.000477108351856e0 1.013061561176773e0 1.025804306931714e0
      1.038707336696630e0 1.051772666596169e0 1.065002338114714e0 1.078398418415351e0
      1.091963000662885e0 1.105698204350890e0 1.119606175632883e0 1.133689087657678e0
      1.147949140908925e0 1.162388563548960e0 1.177009611766949e0 1.191814570131420e0
      1.206805751947241e0 1.221985499617067e0 1.237356185007358e0 1.252920209818978e0
      1.268680005962467e0 1.284638035938039e0 1.300796793220340e0 1.317158802648074e0
      1.333726620818504e0 1.350502836486923e0 1.367490070971164e0 1.384690978561173e0
      1.402108246933757e0 1.419744597572539e0 1.437602786193182e0 1.455685603173995e0
      1.473995873991917e0 1.492536459664018e0 1.511310257194534e0 1.530320200027518e0
      1.549569258505219e0 1.569060440332183e0 1.588796791045227e0 1.608781394489306e0
      1.629017373299363e0 1.649507889388262e0 1.670256144440826e0 1.691265380414120e0
      1.712538880044013e0 1.734079967358098e0 1.755892008195098e0 1.777978410730767e0
      1.800342626010436e0 1.822988148488249e0 1.845918516573158e0 1.869137313181835e0
      1.892648166298483e0 1.916454749541737e0 1.940560782738669e0 1.964970032506001e0
      1.989686312838679e0 2.014713485705782e0 2.040055461653994e0 2.065716200418617e0
      2.091699711542284e0 2.118010055001481e0 2.144651341840891e0 2.171627734815792e0
      2.198943449042472e0 2.226602752656847e0 2.254609967481386e0 2.282969469700381e0
      2.311685690543753e0 2.340763116979438e0 2.370206292414467e0 2.400019817404911e0
      2.430208350374699e0 2.460776608343531e0 2.491729367663909e0 2.523071464767443e0
      2.554807796920580e0 2.586943322989780e0 2.619483064216372e0 2.652432105001133e0
      2.685795593698710e0 2.719578743422102e0 2.753786832857175e0 2.788425207087503e0
      2.823499278429540e0 2.859014527278280e0 2.894976502963623e0 2.931390824617424e0
      2.968263182051532e0 3.005599336646820e0 3.043405122253392e0 3.081686446102178e0
      3.120449289727902e0 3.159699709903749e0 3.199443839587734e0 3.239687888880967e0
      3.280438145998040e0 3.321700978249522e0 3.363482833036909e0 3.405790238860023e0
      3.448629806337087e0 3.492008229237689e0 3.535932285528649e0 3.580408838433133e0
      3.625444837503027e0 3.671047319704800e0 3.717223410519086e0 3.763980325054010e0
      3.811325369172600e0 3.859265940634332e0 3.907809530251019e0 3.956963723057315e0
      4.006736199495837e0 4.057134736617297e0 4.108167209295667e0 4.159841591458613e0
      4.212165957333495e0 4.265148482708921e0 4.318797446212282e0 4.373121230603283e0
      4.428128324083743e0 4.483827321623946e0 4.540226926305562e0 4.597335950681577e0
      4.655163318153246e0 4.713718064364373e0 4.773009338613197e0 4.833046405281936e0
      4.893838645284408e0 4.955395557531807e0 5.017726760416892e0 5.080841993316946e0
      5.144751118115499e0 5.209464120743336e0 5.274991112738785e0 5.341342332827643e0
      5.408528148523060e0 5.476559057745411e0 5.545445690462680e0 5.615198810351391e0
      5.685829316478419e0 5.757348245004067e0 5.829766770906404e0 5.903096209727446e0
      5.977348019341211e0 6.052533801743997e0 6.128665304867292e0 6.205754424413328e0
      6.283813205713884e0 6.362853845612361e0 6.442888694369531e0 6.523930257593366e0
      6.605991198192978e0 6.689084338357301e0 6.773222661558552e0 6.858419314580888e0
      6.944687609574702e0 7.032041026136576e0 7.120493213415582e0 7.210057992245954e0
      7.300749357306578e0 7.392581479307784e0 7.485568707205443e0 7.579725570443111e0
      7.675066781222244e0 7.771607236800976e0 7.869362021821929e0 7.968346410669119e0
      8.068575869854703e0 8.170066060435611e0 8.272832840460575e0 8.376892267448087e0
      8.482260600895291e0 8.588954304818678e0 8.696990050326573e0 8.806384718223978e0
      8.917155401650351e0 9.029319408750311e0 9.142894265378180e0 9.257897717836391e0
      9.374347735648341e0 9.492262514366258e0 9.611660478414187e0 9.732560283966944e0
      9.854980821865135e0 9.978941220566840e0 1.010446084913659e1 1.023155932027168e1
      1.036025649336684e1 1.049057247761721e1 1.062252763516042e1 1.075614258425835e1
      1.089143820251859e1 1.102843563015677e1 1.116715627329972e1 1.130762180733010e1
      1.144985418027344e1 1.159387561622733e1 1.173970861883418e1 1.188737597479737e1
      1.203690075744165e1 1.218830633031856e1 1.234161635085687e1 1.249685477405922e1
      1.265404585624508e1 1.281321415884082e1 1.297438455221758e1 1.313758221957720e1
      1.330283266088724e1 1.347016169686539e1 1.363959547301391e1 1.381116046370509e1
      1.398488347631772e1 1.416079165542599e1 1.433891248704080e1 1.451927380290443e1
      1.470190378483948e1 1.488683096915214e1 1.507408425109123e1 1.526369288936303e1
      1.545568651070300e1 1.565009511450513e1 1.584694907750924e1 1.604627915854758e1
      1.624811650335088e1 1.645249264941485e1 1.665943953092818e1 1.686898948376207e1
      1.708117525052303e1 1.729602998566883e1 1.751358726068892e1 1.773388106935018e1
      1.795694583300837e1 1.818281640598665e1 1.841152808102162e1 1.864311659477777e1
      1.887761813343160e1 1.911506933832555e1 1.935550731169353e1 1.959896962245809e1
      1.984549431210052e1 2.009511990060524e1 2.034788539247823e1 2.060383028284188e1
      2.086299456360608e1 2.112541872971690e1 2.139114378548428e1 2.166021125098872e1
      2.193266316856917e1 2.220854210939210e1 2.248789118010321e1 2.277075402956322e1
      2.305717485566777e1 2.334719841225371e1 2.364087001609184e1 2.393823555396767e1
      2.423934148985157e1 2.454423487215854e1 2.485296334109992e1 2.516557513612713e1
      2.548211910346908e1 2.580264470376477e1 2.612720201979126e1 2.645584176428955e1
      2.678861528788838e1 2.712557458712777e1 2.746677231258385e1 2.781226177709530e1
      2.816209696409391e1 2.851633253603945e1 2.887502384296061e1 2.923822693110399e1
      2.960599855169093e1 2.997839616978544e1 3.035547797327306e1 3.073730288195265e1
      3.112393055674312e1 3.151542140900516e1 3.191183660998099e1 3.231323810035231e1
      3.271968859991854e1 3.313125161739730e1 3.354799146034727e1 3.396997324521684e1
      3.439726290751848e1 3.482992721213114e1 3.526803376373280e1 3.571165101736334e1
      3.616084828912126e1 3.661569576699424e1 3.707626452182597e1 3.754262651842154e1
      3.801485462679161e1 3.849302263353895e1 3.897720525338750e1 3.946747814085656e1
      3.996391790208241e1 4.046660210678763e1 4.097560930040196e1 4.149101901633506e1
      4.201291178840356e1 4.254136916341498e1 4.307647371390920e1 4.361830905106099e1
      4.416695983774422e1 4.472251180176039e1 4.528505174923434e1 4.585466757817717e1
      4.643144829222114e1 4.701548401452636e1 4.760686600186252e1 4.820568665886848e1
      4.881203955249002e1 4.942601942660051e1 5.004772221680451e1 5.067724506542768e1
      5.131468633669607e1 5.196014563210501e1 5.261372380598272e1 5.327552298124864e1
      5.394564656537020e1 5.462419926652096e1 5.531128710994081e1 5.600701745450326e1
      5.671149900949026e1 5.742484185157783e1 5.814715744203657e1 5.887855864414681e1
      5.961915974083457e1 6.036907645252807e1 6.112842595523899e1 6.189732689887229e1
      6.267589942576452e1 6.346426518945712e1 6.426254737370475e1 6.507087071172257e1
      6.588936150567692e1 6.671814764641937e1 6.755735863347070e1 6.840712559525514e1
      6.926758130958909e1 7.013886022442880e1 7.102109847887705e1 7.191443392445618e1
      7.281900614664718e1 7.373495648669987e1 7.466242806371870e1 7.560156579702424e1
      7.655251642879813e1 7.751542854701147e1 7.849045260864151e1 7.947774096318184e1
      8.047744787644627e1 8.148972955467400e1 8.251474416893696e1 8.355265187985372e1
      8.460361486261606e1 8.566779733232789e1 8.674536556966542e1 8.783648794685815e1