<?xml version="1.0" encoding="UTF-8"?>
<UPF version="2.0.1">
  <PP_INFO><![CDATA[
Generated using "atomic" code by A. Dal Corso  v.6.3MaX
Author: ADC
Generation date: 23May2022
Pseudopotential type: USPP
Element:  V
Functional: PBE
    Suggested minimum cutoff for wavefunctions:  50. Ry
    Suggested minimum cutoff for charge density: 641. Ry
    The Pseudo was generated with a Scalar-Relativistic Calculation
    Local Potential by smoothing AE potential with Bessel fncs, cutoff radius:   1.5000
    Pseudopotential contains additional information for GIPAW reconstruction.
    Valence configuration:
    nl pn  l   occ       Rcut    Rcut US       E pseu
    3S  1  0  2.00      0.750      1.550    -5.162158
    4S  2  0  2.00      0.750      1.550    -0.345580
    3P  2  1  6.00      0.850      1.400    -3.236936
    3D  3  2  3.00      1.000      1.500    -0.379561
    Generation configuration:
    3S  1  0  2.00      0.750      1.550    -5.162196
    4S  2  0  2.00      0.750      1.550    -0.345587
    3P  2  1  6.00      0.850      1.400    -3.236965
    4P  3  1  0.00      0.850      1.400     7.000000
    3D  3  2  3.00      1.000      1.500    -0.379584
    3D  3  2  0.00      1.000      1.500     5.000000
    Pseudization used: troullier-martins
]]>
    <PP_INPUTFILE><![CDATA[
 &input
   title='V',
   zed=23.,
   rel=1,
   config='[Ar] 4s2 4p0 3d3',
   iswitch=3,
   dft='PBE'
 /
 &inputp
   lpaw=.false.,
   pseudotype=3,
   file_pseudopw='V.pbe-spn-rrkjus_psl.1.0.0.UPF',
   author='ADC',
   lloc=-1,
   rcloc=1.5,
   which_augfun='PSQ',
   rmatch_augfun_nc=.true.,
   nlcc=.true.,
   new_core_ps=.true.,
   rcore=0.8,
   tm=.true.
 /
6
3S  1  0  2.00  0.00  0.75  1.55  0.0
4S  2  0  2.00  0.00  0.75  1.55  0.0
3P  2  1  6.00  0.00  0.85  1.40  0.0
4P  3  1  0.00  7.00  0.85  1.40  0.0
3D  3  2  3.00  0.00  1.00  1.50  0.0
3D  3  2  0.00  5.00  1.00  1.50  0.0
]]></PP_INPUTFILE>
  </PP_INFO>
  <!--
 END OF HUMAN READABLE SECTION 
-->
  <PP_HEADER generated="Generated using &quot;atomic&quot; code by A. Dal Corso  v.6.3MaX" author="ADC" date="23May2022" comment="" element=" V" pseudo_type="USPP" relativistic="scalar" is_ultrasoft="true" is_paw="false" is_coulomb="false" has_so="false" has_wfc="false" has_gipaw="true" paw_as_gipaw="false" core_correction="true" functional="PBE" z_valence="1.300000000000e1" total_psenergy="-1.449315197409e2" wfc_cutoff="4.992236031899e1" rho_cutoff="6.413347378358e2" l_max="2" l_max_rho="4" l_local="-1" mesh_size="1181" number_of_wfc="4" number_of_proj="6"/>
  <PP_MESH dx="1.250000000000e-2" mesh="1181" xmin="-7.000000000000e0" rmax="1.000000000000e2" zmesh="2.300000000000e1">
    <PP_R>
      3.964704198063114e-5 4.014574037691402e-5 4.065071162680792e-5 4.116203463309800e-5
      4.167978929104434e-5 4.220405650086560e-5 4.273491818037995e-5 4.327245727780483e-5
      4.381675778471785e-5 4.436790474918063e-5 4.492598428902769e-5 4.549108360532255e-5
      4.606329099598305e-5 4.664269586957813e-5 4.722938875929817e-5 4.782346133710079e-5
      4.842500642803492e-5 4.903411802474489e-5 4.965089130215685e-5 5.027542263235034e-5
      5.090780959961628e-5 5.154815101570492e-5 5.219654693526525e-5 5.285309867147890e-5
      5.351790881189046e-5 5.419108123443693e-5 5.487272112367889e-5 5.556293498723583e-5
      5.626183067242819e-5 5.696951738312870e-5 5.768610569682572e-5 5.841170758190116e-5
      5.914643641512582e-5 5.989040699937467e-5 6.064373558156516e-5 6.140653987082095e-5
      6.217893905686410e-5 6.296105382863894e-5 6.375300639316970e-5 6.455492049465594e-5
      6.536692143380750e-5 6.618913608742311e-5 6.702169292821524e-5 6.786472204488401e-5
      6.871835516244422e-5 6.958272566280716e-5 7.045796860562204e-5 7.134422074937938e-5
      7.224162057277972e-5 7.315030829637136e-5 7.407042590445974e-5 7.500211716729314e-5
      7.594552766352693e-5 7.690080480297046e-5 7.786809784962044e-5 7.884755794498323e-5
      7.983933813169162e-5 8.084359337741743e-5 8.186048059908597e-5 8.289015868739463e-5
      8.393278853163954e-5 8.498853304485509e-5 8.605755718926941e-5 8.714002800207997e-5
      8.823611462155366e-5 8.934598831345474e-5 9.046982249780564e-5 9.160779277598408e-5
      9.276007695816123e-5 9.392685509108498e-5 9.510830948621239e-5 9.630462474819639e-5
      9.751598780373058e-5 9.874258793075683e-5 9.998461678804070e-5 1.012422684451180e-4
      1.025157394126188e-4 1.038052286729727e-4 1.051109377115002e-4 1.064330705478949e-4
      1.077718337681025e-4 1.091274365565999e-4 1.105000907290808e-4 1.118900107655522e-4
      1.132974138438477e-4 1.147225198735618e-4 1.161655515304109e-4 1.176267342910273e-4
      1.191062964681899e-4 1.206044692464995e-4 1.221214867185006e-4 1.236575859212594e-4
      1.252130068734019e-4 1.267879926126160e-4 1.283827892336281e-4 1.299976459266548e-4
      1.316328150163398e-4 1.332885520011801e-4 1.349651155934482e-4 1.366627677596166e-4
      1.383817737612898e-4 1.401224021966533e-4 1.418849250424412e-4 1.436696176964340e-4
      1.454767590204901e-4 1.473066313841179e-4 1.491595207085972e-4 1.510357165116545e-4
      1.529355119527013e-4 1.548592038786405e-4 1.568070928702492e-4 1.587794832891454e-4
      1.607766833253449e-4 1.627990050454165e-4 1.648467644412438e-4 1.669202814793984e-4
      1.690198801511361e-4 1.711458885230210e-4 1.732986387881865e-4 1.754784673182417e-4
      1.776857147158290e-4 1.799207258678451e-4 1.821838499993295e-4 1.844754407280322e-4
      1.867958561196670e-4 1.891454587438595e-4 1.915246157308003e-4 1.939336988286088e-4
      1.963730844614203e-4 1.988431537882032e-4 2.013442927623151e-4 2.038768921918091e-4
      2.064413478004990e-4 2.090380602897906e-4 2.116674354012940e-4 2.143298839802196e-4
      2.170258220395746e-4 2.197556708251658e-4 2.225198568814196e-4 2.253188121180315e-4
      2.281529738774515e-4 2.310227850032207e-4 2.339286939091661e-4 2.368711546494663e-4
      2.398506269895988e-4 2.428675764781782e-4 2.459224745197004e-4 2.490157984481994e-4
      2.521480316018322e-4 2.553196633984022e-4 2.585311894118302e-4 2.617831114495895e-4
      2.650759376311147e-4 2.684101824671957e-4 2.717863669403722e-4 2.752050185863368e-4
      2.786666715763645e-4 2.821718668007777e-4 2.857211519534614e-4 2.893150816174423e-4
      2.929542173515420e-4 2.966391277781229e-4 3.003703886719362e-4 3.041485830500875e-4
      3.079743012631359e-4 3.118481410873347e-4 3.157707078180388e-4 3.197426143642799e-4
      3.237644813445364e-4 3.278369371837076e-4 3.319606182113027e-4 3.361361687608726e-4
      3.403642412706858e-4 3.446454963856737e-4 3.489806030606592e-4 3.533702386648788e-4
      3.578150890878274e-4 3.623158488464265e-4 3.668732211935448e-4 3.714879182278846e-4
      3.761606610052449e-4 3.808921796511926e-4 3.856832134751417e-4 3.905345110858746e-4
      3.954468305085141e-4 4.004209393029626e-4 4.054576146838404e-4 4.105576436419223e-4
      4.157218230671090e-4 4.209509598729432e-4 4.262458711226881e-4 4.316073841570005e-4
      4.370363367231993e-4 4.425335771061683e-4 4.480999642609021e-4 4.537363679467176e-4
      4.594436688631589e-4 4.652227587876055e-4 4.710745407146153e-4 4.769999289970212e-4
      4.829998494887960e-4 4.890752396897246e-4 4.952270488918860e-4 5.014562383279834e-4
      5.077637813215414e-4 5.141506634389833e-4 5.206178826436357e-4 5.271664494516565e-4
      5.337973870899320e-4 5.405117316559606e-4 5.473105322797390e-4 5.541948512876985e-4
      5.611657643686901e-4 5.682243607420644e-4 5.753717433278670e-4 5.826090289191664e-4
      5.899373483565624e-4 5.973578467048758e-4 6.048716834320704e-4 6.124800325904233e-4
      6.201840829999677e-4 6.279850384342556e-4 6.358841178084442e-4 6.438825553697565e-4
      6.519816008903355e-4 6.601825198625194e-4 6.684865936965839e-4 6.768951199209605e-4
      6.854094123849776e-4 6.940308014641574e-4 7.027606342680814e-4 7.116002748508881e-4
      7.205511044244023e-4 7.296145215739548e-4 7.387919424769168e-4 7.480848011239731e-4
      7.574945495431962e-4 7.670226580269201e-4 7.766706153614798e-4 7.864399290598398e-4
      7.963321255971381e-4 8.063487506492123e-4 8.164913693341047e-4 8.267615664566199e-4
      8.371609467559535e-4 8.476911351564345e-4 8.583537770214253e-4 8.691505384104099e-4
      8.800831063393215e-4 8.911531890441417e-4 9.023625162478149e-4 9.137128394305229e-4
      9.252059321033554e-4 9.368435900854248e-4 9.486276317844682e-4 9.605598984809758e-4
      9.726422546158958e-4 9.848765880819553e-4 9.972648105186492e-4 1.009808857610938e-3
      1.022510689391700e-3 1.035372290547995e-3 1.048395670731168e-3 1.061582864870871e-3
      1.074935933493017e-3 1.088456963041745e-3 1.102148066205433e-3 1.116011382246802e-3
      1.130049077337189e-3 1.144263344895013e-3 1.158656405928499e-3 1.173230509382717e-3
      1.187987932490981e-3 1.202930981130677e-3 1.218061990183557e-3 1.233383323900570e-3
      1.248897376271280e-3 1.264606571397934e-3 1.280513363874230e-3 1.296620239168857e-3
      1.312929714013848e-3 1.329444336797830e-3 1.346166687964212e-3 1.363099380414386e-3
      1.380245059915998e-3 1.397606405516351e-3 1.415186129961019e-3 1.432986980117712e-3
      1.451011737405482e-3 1.469263218229329e-3 1.487744274420262e-3 1.506457793680914e-3
      1.525406700036741e-3 1.544593954292912e-3 1.564022554496942e-3 1.583695536407141e-3
      1.603615973966957e-3 1.623786979785288e-3 1.644211705622830e-3 1.664893342884550e-3
      1.685835123118348e-3 1.707040318519992e-3 1.728512242444405e-3 1.750254249923385e-3
      1.772269738189836e-3 1.794562147208589e-3 1.817134960213910e-3 1.839991704253753e-3
      1.863135950740877e-3 1.886571316010886e-3 1.910301461887279e-3 1.934330096253631e-3
      1.958660973632949e-3 1.983297895774322e-3 2.008244712246962e-3 2.033505321041695e-3
      2.059083669180040e-3 2.084983753330934e-3 2.111209620435217e-3 2.137765368337982e-3
      2.164655146428867e-3 2.191883156290408e-3 2.219453652354540e-3 2.247370942567366e-3
      2.275639389062278e-3 2.304263408841556e-3 2.333247474466528e-3 2.362596114756413e-3
      2.392313915495968e-3 2.422405520152017e-3 2.452875630599015e-3 2.483729007853708e-3
      2.514970472819064e-3 2.546604907037546e-3 2.578637253453857e-3 2.611072517187302e-3
      2.643915766313825e-3 2.677172132657923e-3 2.710846812594498e-3 2.744945067860799e-3
      2.779472226378590e-3 2.814433683086632e-3 2.849834900783668e-3 2.885681410981984e-3
      2.921978814771728e-3 2.958732783696095e-3 2.995949060637503e-3 3.033633460714942e-3
      3.071791872192593e-3 3.110430257399879e-3 3.149554653663107e-3 3.189171174248788e-3
      3.229286009318866e-3 3.269905426897932e-3 3.311035773852623e-3 3.352683476883334e-3
      3.394855043528399e-3 3.437557063180900e-3 3.480796208118286e-3 3.524579234544923e-3
      3.568912983647774e-3 3.613804382665329e-3 3.659260445970017e-3 3.705288276164212e-3
      3.751895065190022e-3 3.799088095453060e-3 3.846874740960318e-3 3.895262468472379e-3
      3.944258838670111e-3 3.993871507336038e-3 4.044108226550587e-3 4.094976845903334e-3
      4.146485313719550e-3 4.198641678302125e-3 4.251454089189133e-3 4.304930798427231e-3
      4.359080161861034e-3 4.413910640438743e-3 4.469430801534193e-3 4.525649320285506e-3
      4.582574980950624e-3 4.640216678279835e-3 4.698583418905622e-3 4.757684322749956e-3
      4.817528624449302e-3 4.878125674797554e-3 4.939484942207121e-3 5.001616014188366e-3
      5.064528598847696e-3 5.128232526404459e-3 5.192737750726940e-3 5.258054350887682e-3
      5.324192532738346e-3 5.391162630504404e-3 5.458975108399883e-3 5.527640562262417e-3
      5.597169721208880e-3 5.667573449311813e-3 5.738862747296968e-3 5.811048754262195e-3
      5.884142749417943e-3 5.958156153849671e-3 6.033100532302403e-3 6.108987594987747e-3
      6.185829199413639e-3 6.263637352237099e-3 6.342424211140322e-3 6.422202086730299e-3
      6.502983444462396e-3 6.584780906588117e-3 6.667607254127326e-3 6.751475428865349e-3
      6.836398535375116e-3 6.922389843064797e-3 7.009462788251168e-3 7.097630976259062e-3
      7.186908183547241e-3 7.277308359860982e-3 7.368845630411748e-3 7.461534298084298e-3
      7.555388845671528e-3 7.650423938137457e-3 7.746654424908630e-3 7.844095342194385e-3
      7.942761915336294e-3 8.042669561187143e-3 8.143833890519870e-3 8.246270710466753e-3
      8.349996026989313e-3 8.455026047379288e-3 8.561377182791047e-3 8.669066050805876e-3
      8.778109478028497e-3 8.888524502716265e-3 9.000328377441425e-3 9.113538571786862e-3
      9.228172775075787e-3 9.344248899135682e-3 9.461785081097087e-3 9.580799686227564e-3
      9.701311310801298e-3 9.823338785004820e-3 9.946901175879239e-3 1.007201779029952e-2
      1.019870817799121e-2 1.032699213458514e-2 1.045688970471053e-2 1.058842118512699e-2
      1.072160712789594e-2 1.085646834359190e-2 1.099302590455419e-2 1.113130114817957e-2
      1.127131568025616e-2 1.141309137833945e-2 1.155665039517073e-2 1.170201516213843e-2
      1.184920839278316e-2 1.199825308634666e-2 1.214917253136554e-2 1.230199030931013e-2
      1.245673029826913e-2 1.261341667668067e-2 1.277207392711013e-2 1.293272684007568e-2
      1.309540051792184e-2 1.326012037874171e-2 1.342691216034869e-2 1.359580192429799e-2
      1.376681605995884e-2 1.393998128863787e-2 1.411532466775434e-2 1.429287359506801e-2
      1.447265581295998e-2 1.465469941276758e-2 1.483903283917365e-2 1.502568489465106e-2
      1.521468474396328e-2 1.540606191872125e-2 1.559984632199790e-2 1.579606823300050e-2
      1.599475831180184e-2 1.619594760413100e-2 1.639966754622422e-2 1.660594996973692e-2
      1.681482710671746e-2 1.702633159464344e-2 1.724049648152143e-2 1.745735523105073e-2
      1.767694172785214e-2 1.789929028276255e-2 1.812443563819602e-2 1.835241297357242e-2
      1.858325791081421e-2 1.881700651991250e-2 1.905369532456302e-2 1.929336130787304e-2
      1.953604191814007e-2 1.978177507470320e-2 2.003059917386809e-2 2.028255309490646e-2
      2.053767620613107e-2 2.079600837104714e-2 2.105758995458098e-2 2.132246182938724e-2
      2.159066538223521e-2 2.186224252047569e-2 2.213723567858910e-2 2.241568782481584e-2
      2.269764246787028e-2 2.298314366373903e-2 2.327223602256479e-2 2.356496471561684e-2
      2.386137548234899e-2 2.416151463754659e-2 2.446542907856331e-2 2.477316629264883e-2
      2.508477436436899e-2 2.540030198311896e-2 2.571979845073111e-2 2.604331368917851e-2
      2.637089824837537e-2 2.670260331407556e-2 2.703848071587045e-2 2.737858293528741e-2
      2.772296311399016e-2 2.807167506208226e-2 2.842477326651511e-2 2.878231289960149e-2
      2.914434982763651e-2 2.951094061962673e-2 2.988214255612922e-2 3.025801363820183e-2
      3.063861259646581e-2 3.102399890028273e-2 3.141423276704663e-2 3.180937517159312e-2
      3.220948785572686e-2 3.261463333786879e-2 3.302487492282474e-2 3.344027671167700e-2
      3.386090361180021e-2 3.428682134700334e-2 3.471809646779901e-2 3.515479636180230e-2
      3.559698926426011e-2 3.604474426871306e-2 3.649813133779163e-2 3.695722131414776e-2
      3.742208593152427e-2 3.789279782596342e-2 3.836943054715633e-2 3.885205856993546e-2
      3.934075730591130e-2 3.983560311525558e-2 4.033667331863277e-2 4.084404620928156e-2
      4.135780106524844e-2 4.187801816177488e-2 4.240477878384057e-2 4.293816523886445e-2
      4.347826086956522e-2 4.402515006698411e-2 4.457891828367083e-2 4.513965204703590e-2
      4.570743897287064e-2 4.628236777903735e-2 4.686452829933181e-2 4.745401149751966e-2
      4.805090948154992e-2 4.865531551794701e-2 4.926732404638376e-2 4.988703069443794e-2
      5.051453229253406e-2 5.114992688907352e-2 5.179331376575473e-2 5.244479345308611e-2
      5.310446774609435e-2 5.377243972022979e-2 5.444881374747239e-2 5.513369551264002e-2
      5.582719202990180e-2 5.652941165949963e-2 5.724046412467922e-2 5.796046052883494e-2
      5.868951337286974e-2 5.942773657277376e-2 6.017524547742399e-2 6.093215688660756e-2
      6.169858906927209e-2 6.247466178200546e-2 6.326049628774788e-2 6.405621537473982e-2
      6.486194337570743e-2 6.567780618729015e-2 6.650393128971217e-2 6.734044776670144e-2
      6.818748632565953e-2 6.904517931808451e-2 6.991366076025147e-2 7.079306635415266e-2
      7.168353350870122e-2 7.258520136120188e-2 7.349821079909096e-2 7.442270448195067e-2
      7.535882686379985e-2 7.630672421566516e-2 7.726654464843646e-2 7.823843813600910e-2
      7.922255653871781e-2 8.021905362706526e-2 8.122808510574879e-2 8.224980863799001e-2
      8.328438387016943e-2 8.433197245677196e-2 8.539273808564559e-2 8.646684650357791e-2
      8.755446554219466e-2 8.865576514418329e-2 8.977091738984729e-2 9.090009652399377e-2
      9.204347898315978e-2 9.320124342318085e-2 9.437357074710622e-2 9.556064413346535e-2
      9.676264906488996e-2 9.797977335709602e-2 9.921220718823061e-2 1.004601431285872e-1
      1.017237761706953e-1 1.030033037597888e-1 1.042989258246565e-1 1.056108448088821e-1
      1.069392657024761e-1 1.082843960739057e-1 1.096464461025282e-1 1.110256286114316e-1
      1.124221591006890e-1 1.138362557810305e-1 1.152681396079395e-1 1.167180343161771e-1
      1.181861664547411e-1 1.196727654222655e-1 1.211780635028631e-1 1.227022959024217e-1
      1.242457007853550e-1 1.258085193118157e-1 1.273909956753785e-1 1.289933771411943e-1
      1.306159140846275e-1 1.322588600303768e-1 1.339224716920883e-1 1.356070090124694e-1
      1.373127352039030e-1 1.390399167895771e-1 1.407888236451289e-1 1.425597290408119e-1
      1.443529096841979e-1 1.461686457634100e-1 1.480072209909051e-1 1.498689226478034e-1
      1.517540416287757e-1 1.536628724874989e-1 1.555957134826774e-1 1.575528666246496e-1
      1.595346377225759e-1 1.615413364322219e-1 1.635732763043441e-1 1.656307748336810e-1
      1.677141535085640e-1 1.698237378611502e-1 1.719598575182860e-1 1.741228462530143e-1
      1.763130420367251e-1 1.785307870919657e-1 1.807764279459135e-1 1.830503154845200e-1
      1.853528050073401e-1 1.876842562830454e-1 1.900450336056416e-1 1.924355058513886e-1
      1.948560465364376e-1 1.973070338751960e-1 1.997888508394213e-1 2.023018852180638e-1
      2.048465296778585e-1 2.074231818246784e-1 2.100322442656645e-1 2.126741246721307e-1
      2.153492358432658e-1 2.180579957706332e-1 2.208008277034818e-1 2.235781602148823e-1
      2.263904272686891e-1 2.292380682873517e-1 2.321215282205730e-1 2.350412576148333e-1
      2.379977126837915e-1 2.409913553795663e-1 2.440226534649198e-1 2.470920805863456e-1
      2.502001163480752e-1 2.533472463870208e-1 2.565339624486529e-1 2.597607624638401e-1
      2.630281506266500e-1 2.663366374731298e-1 2.696867399610814e-1 2.730789815508333e-1
      2.765138922870360e-1 2.799920088814810e-1 2.835138747969614e-1 2.870800403321928e-1
      2.906910627077944e-1 2.943475061533597e-1 2.980499419956166e-1 3.017989487476972e-1
      3.055951121995348e-1 3.094390255093912e-1 3.133312892965420e-1 3.172725117351233e-1
      3.212633086491587e-1 3.253043036087863e-1 3.293961280276891e-1 3.335394212617577e-1
      3.377348307089903e-1 3.419830119106475e-1 3.462846286536861e-1 3.506403530744728e-1
      3.550508657638107e-1 3.595168558732815e-1 3.640390212229246e-1 3.686180684102775e-1
      3.732547129207781e-1 3.779496792395653e-1 3.827037009646788e-1 3.875175209216843e-1
      3.923918912797448e-1 3.973275736691447e-1 4.023253393002996e-1 4.073859690842580e-1
      4.125102537547185e-1 4.176989939915875e-1 4.229530005460821e-1 4.282730943674165e-1
      4.336601067310751e-1 4.391148793686980e-1 4.446382645996091e-1 4.502311254639867e-1
      4.558943358577205e-1 4.616287806689570e-1 4.674353559163633e-1 4.733149688891369e-1
      4.792685382887655e-1 4.852969943725810e-1 4.914012790991126e-1 4.975823462752661e-1
      5.038411617053653e-1 5.101787033420528e-1 5.165959614391041e-1 5.230939387061539e-1
      5.296736504653684e-1 5.363361248100985e-1 5.430824027655135e-1 5.499135384512705e-1
      5.568305992462193e-1 5.638346659551797e-1 5.709268329778273e-1 5.781082084796864e-1
      5.853799145652917e-1 5.927430874535115e-1 6.001988776550911e-1 6.077484501524194e-1
      6.153929845815568e-1 6.231336754165629e-1 6.309717321561273e-1 6.389083795125626e-1
      6.469448576031674e-1 6.550824221439910e-1 6.633223446460513e-1 6.716659126140011e-1
      6.801144297473119e-1 6.886692161439754e-1 6.973316085067686e-1 7.061029603521243e-1
      7.149846422216114e-1 7.239780418960933e-1 7.330845646125673e-1 7.423056332837331e-1
      7.516426887203332e-1 7.610971898562735e-1 7.706706139765932e-1 7.803644569482894e-1
      7.901802334540465e-1 8.001194772289162e-1 8.101837412999572e-1 8.203745982289080e-1
      8.306936403578986e-1 8.411424800582530e-1 8.517227499824356e-1 8.624361033191448e-1
      8.732842140516377e-1 8.842687772192882e-1 8.953915091824364e-1 9.066541478905840e-1
      9.180584531539402e-1 9.296062069184062e-1 9.412992135440032e-1 9.531393000868032e-1
      9.651283165844202e-1 9.772681363450706e-1 9.895606562402925e-1 1.002007797001330e0
      1.014611503519249e0 1.027373745148837e0 1.040296516016311e0 1.053381835330912e0
      1.066631747700407e0 1.080048323450559e0 1.093633658948626e0 1.107389876930917e0
      1.121319126834481e0 1.135423585132956e0 1.149705455676644e0 1.164166970036876e0
      1.178810387854692e0 1.193637997193917e0 1.208652114898682e0 1.223855086955420e0
      1.239249288859449e0 1.254837125986132e0 1.270621033966737e0 1.286603479068999e0
      1.302786958582479e0 1.319174001208781e0 1.335767167456649e0 1.352569050042072e0
      1.369582274293390e0 1.386809498561500e0 1.404253414635249e0 1.421916748162008e0
      1.439802259073579e0 1.457912742017433e0 1.476251026793372e0 1.494819978795705e0
      1.513622499460959e0 1.532661526721241e0 1.551940035463300e0 1.571461037993345e0
      1.591227584507741e0 1.611242763569591e0 1.631509702591348e0 1.652031568323470e0
      1.672811567349223e0 1.693852946585740e0 1.715158993791329e0 1.736733038079215e0
      1.758578450437714e0 1.780698644256948e0 1.803097075862209e0 1.825777245054000e0
      1.848742695654904e0 1.871997016063303e0 1.895543839814066e0 1.919386846146317e0
      1.943529760578298e0 1.967976355489512e0 1.992730450710153e0 2.017795914117956e0
      2.043176662242580e0 2.068876660877552e0 2.094899925699949e0 2.121250522897846e0
      2.147932569805660e0 2.174950235547513e0 2.202307741688638e0 2.230009362895031e0
      2.258059427601369e0 2.286462318687324e0 2.315222474162422e0 2.344344387859459e0
      2.373832610136706e0 2.403691748588891e0 2.433926468767137e0 2.464541494907994e0
      2.495541610671576e0 2.526931659889043e0 2.558716547319455e0 2.590901239416130e0
      2.623490765102698e0 2.656490216558842e0 2.689904750015995e0 2.723739586562997e0
      2.758000012961884e0 2.792691382473998e0 2.827819115696392e0 2.863388701408856e0
      2.899405697431531e0 2.935875731493311e0 2.972804502111227e0 3.010197779480811e0
      3.048061406377733e0 3.086401299070736e0 3.125223448246047e0 3.164533919943467e0
      3.204338856504167e0 3.244644477530474e0 3.285457080857682e0 3.326783043538082e0
      3.368628822837433e0 3.411000957243876e0 3.453906067489623e0 3.497350857585448e0
      3.541342115868180e0 3.585886716061440e0 3.630991618349621e0 3.676663870465478e0
      3.722910608791333e0 3.769739059474126e0 3.817156539554562e0 3.865170458110362e0
      3.913788317413992e0 3.963017714104889e0 4.012866340376430e0 4.063341985177902e0
      4.114452535431485e0 4.166205977264647e0 4.218610397257976e0 4.271673983708698e0
      4.325405027910172e0 4.379811925447354e0 4.434903177508682e0 4.490687392214385e0
      4.547173285961488e0 4.604369684785827e0 4.662285525741068e0 4.720929858295200e0
      4.780311845744505e0 4.840440766645320e0 4.901326016263884e0 4.962977108044306e0
      5.025403675095116e0 5.088615471694431e0 5.152622374814058e0 5.217434385662850e0
      5.283061631249346e0 5.349514365964198e0 5.416802973182411e0 5.484937966885747e0
      5.553929993305610e0 5.623789832586477e0 5.694528400470374e0 5.766156750002463e0
      5.838686073258066e0 5.912127703091527e0 5.986493114906901e0 6.061793928451094e0
      6.138041909629435e0 6.215248972344088e0 6.293427180355701e0 6.372588749168313e0
      6.452746047938113e0 6.533911601406130e0 6.616098091855201e0 6.699318361091692e0
      6.783585412451961e0 6.868912412834237e0 6.955312694755943e0 7.042799758436884e0
      7.131387273908782e0 7.221089083151135e0 7.311919202254150e0 7.403891823608745e0
      7.497021318124101e0 7.591322237473237e0 7.686809316366628e0 7.783497474854638e0
      7.881401820658755e0 7.980537651532173e0 8.080920457650189e0 8.182565924030456e0
      8.285489932983912e0 8.389708566596374e0 8.495238109241345e0 8.602095050124598e0
      8.710296085860515e0 8.819858123081081e0 8.930798281077537e0 9.043133894475245e0
      9.156882515942380e0 9.272061918932437e0 9.388690100461483e0 9.506785283920182e0
      9.626365921921181e0 9.747450699182490e0 9.870058535446875e0 9.994208588438211e0
      1.011992025685488e1 1.024721318340081e1 1.037610725785478e1 1.050662262017812e1
      1.063877966366176e1 1.077259903811262e1 1.090810165308020e1 1.104530868112380e1
      1.118424156112065e1 1.132492200161595e1 1.146737198421475e1 1.161161376701662e1
      1.175766988809361e1 1.190556316901176e1 1.205531671839713e1 1.220695393554650e1
      1.236049851408352e1 1.251597444566102e1 1.267340602370957e1 1.283281784723358e1
      1.299423482465481e1 1.315768217770434e1 1.332318544536368e1 1.349077048785506e1
      1.366046349068236e1 1.383229096872252e1 1.400627977036855e1 1.418245708172471e1
      1.436085043085430e1 1.454148769208109e1 1.472439709034468e1 1.490960720561063e1
      1.509714697733631e1 1.528704570899256e1 1.547933307264257e1 1.567403911357816e1
      1.587119425501430e1 1.607082930284301e1 1.627297545044662e1 1.647766428357198e1
      1.668492778526575e1 1.689479834087169e1 1.710730874309115e1 1.732249219710678e1
      1.754038232577109e1 1.776101317486002e1 1.798441921839256e1 1.821063536401758e1
      1.843969695846803e1 1.867163979308408e1 1.890650010940559e1 1.914431460483474e1
      1.938512043837033e1 1.962895523641372e1 1.987585709864821e1 2.012586460399216e1
      2.037901681662683e1 2.063535329210056e1 2.089491408350911e1 2.115773974775423e1
      2.142387135188073e1 2.169335047949313e1 2.196621923725345e1 2.224252026146018e1
      2.252229672471052e1 2.280559234264611e1 2.309245138078353e1 2.338291866143119e1
      2.367703957069259e1 2.397486006555821e1 2.427642668108635e1 2.458178653767414e1
      2.489098734842052e1 2.520407742658115e1 2.552110569311778e1 2.584212168434210e1
      2.616717555965575e1 2.649631810938818e1 2.682960076273234e1 2.716707559578091e1
      2.750879533966322e1 2.785481338878439e1 2.820518380916866e1 2.855996134690695e1
      2.891920143671138e1 2.928296021057693e1 2.965129450655198e1 3.002426187761976e1
      3.040192060069069e1 3.078432968570867e1 3.117154888487130e1 3.156363870196615e1
      3.196066040182496e1 3.236267601989596e1 3.276974837193745e1 3.318194106383269e1
      3.359931850152826e1 3.402194590109811e1 3.444988929893314e1 3.488321556205995e1
      3.532199239858887e1 3.576628836829315e1 3.621617289332212e1 3.667171626904798e1
      3.713298967505007e1 3.760006518623660e1 3.807301578410635e1 3.855191536815257e1
      3.903683876740949e1 3.952786175214488e1 4.002506104569918e1 4.052851433647341e1
      4.103830029006868e1 4.155449856157730e1 4.207718980802942e1 4.260645570099584e1
      4.314237893934897e1 4.368504326218530e1 4.423453346190918e1 4.479093539748234e1
      4.535433600783931e1 4.592482332547153e1 4.650248649018322e1 4.708741576301896e1
      4.767970254036777e1 4.827943936824370e1 4.888671995674612e1 4.950163919470266e1
      5.012429316449516e1 5.075477915707328e1 5.139319568715617e1 5.203964250862537e1
      5.269422063011211e1 5.335703233077943e1 5.402818117630417e1 5.470777203505898e1
      5.539591109449801e1 5.609270587774950e1 5.679826526041578e1 5.751269948758598e1
      5.823612019106171e1 5.896864040679950e1 5.971037459257359e1 6.046143864585935e1
      6.122194992194329e1 6.199202725225966e1 6.277179096295785e1 6.356136289370433e1
      6.436086641671941e1 6.517042645605532e1 6.599016950711534e1 6.682022365641879e1
      6.766071860161549e1 6.851178567175035e1 6.937355784778474e1 7.024616978337459e1
      7.112975782590988e1 7.202446003782022e1 7.293041621814623e1 7.384776792438444e1
      7.477665849460540e1 7.571723306985032e1 7.666963861681042e1 7.763402395078987e1
      7.861053975895927e1 7.959933862390054e1 8.060057504744776e1 8.161440547482945e1
      8.264098831911220e1 8.368048398595423e1 8.473305489866847e1 8.579886552360122e1
      8.687808239583134e1 8.797087414519048e1 8.907741152261295e1 9.019786742681537e1
      9.133241693131207e1 9.248123731177168e1 9.364450807371567e1 9.482241098056738e1
      9.601513008205266e1 9.722285174295738e1 9.844576467224856e1 9.968405995255907e1
      1.009379310700460e2
      </PP_R>
    <PP_RAB>
      4.955880247578892e-7 5.018217547114252e-7 5.081338953350990e-7 5.145254329137251e-7
      5.209973661380543e-7 5.275507062608201e-7 5.341864772547494e-7 5.409057159725604e-7
      5.477094723089731e-7 5.545988093647579e-7 5.615748036128462e-7 5.686385450665319e-7
      5.757911374497882e-7 5.830336983697268e-7 5.903673594912272e-7 5.977932667137599e-7
      6.053125803504366e-7 6.129264753093112e-7 6.206361412769606e-7 6.284427829043793e-7
      6.363476199952035e-7 6.443518876963115e-7 6.524568366908157e-7 6.606637333934863e-7
      6.689738601486308e-7 6.773885154304616e-7 6.859090140459863e-7 6.945366873404479e-7
      7.032728834053524e-7 7.121189672891087e-7 7.210763212103215e-7 7.301463447737645e-7
      7.393304551890729e-7 7.486300874921834e-7 7.580466947695646e-7 7.675817483852619e-7
      7.772367382108013e-7 7.870131728579867e-7 7.969125799146212e-7 8.069365061831991e-7
      8.170865179225938e-7 8.273642010927889e-7 8.377711616026906e-7 8.483090255610502e-7
      8.589794395305528e-7 8.697840707850894e-7 8.807246075702755e-7 8.918027593672424e-7