<?xml version="1.0" encoding="UTF-8"?>
<UPF version="2.0.1">
  <PP_INFO>

This pseudopotential file has been produced using the code
ONCVPSP  (Optimized Norm-Conservinng Vanderbilt PSeudopotential)
scalar-relativistic version 4.0.1 06/20/2107 by D. R. Hamann
The code is available through a link at URL www.mat-simresearch.com.
Documentation with the package provides a full discription of the
input data below.


While it is not required under the terms of the GNU GPL, it is
suggested that you cite D. R. Hamann, Phys. Rev. B 88, 085117 (2013)
in any publication using these pseudopotentials.


# ATOM AND REFERENCE CONFIGURATION
# atsym  z   nc   nv     iexc    psfile
Bi 83.00   12    3       4      both
#
#   n    l    f        energy (Ha)
1    0    2.00
2    0    2.00
2    1    6.00
3    0    2.00
3    1    6.00
3    2   10.00
4    0    2.00
4    1    6.00
4    2   10.00
5    0    2.00
5    1    6.00
4    3   14.00
5    2   10.00
6    0    2.00
6    1    3.00
#
# PSEUDOPOTENTIAL AND OPTIMIZATION
# lmax
3
#
#   l,   rc,      ep,       ncon, nbas, qcut
0   2.40000   0.00000    4    7   3.60000
1   2.50000   0.00000    4    7   4.50000
2   2.10000   0.00000    4    7   8.70000
3   2.10000   0.05000    4    7   6.00000
#
# LOCAL POTENTIAL
# lloc, lpopt,  rc(5),   dvloc0
4    5   2.00000      0.00000
#
# VANDERBILT-KLEINMAN-BYLANDER PROJECTORs
# l, nproj, debl
0    3   2.50000
1    2   2.50000
2    2   1.20000
3    1   1.00000
#
# MODEL CORE CHARGE
# icmod, fcfact, rcfact
3   6.00000   1.34000
#
# LOG DERIVATIVE ANALYSIS
# epsh1, epsh2, depsh
-12.00   12.00    0.02
#
# OUTPUT GRID
# rlmax, drl
6.00    0.01
#
# TEST CONFIGURATIONS
# ncnf
0
# nvcnf
#   n    l    f

</PP_INFO>
  <PP_HEADER generated="Generated using ONCVPSP code by D. R. Hamann" author="anonymous" date="230320" comment="" element="Bi" pseudo_type="NC" relativistic="scalar" is_ultrasoft="F" is_paw="F" is_coulomb="F" has_so="F" has_wfc="F" has_gipaw="F" core_correction="T" functional="PBE" z_valence="15.0" total_psenergy="-142.369408621" rho_cutoff="14.83" l_max="3" l_local="-1" mesh_size="602" number_of_wfc="3" number_of_proj="8"/>
  <PP_MESH mesh="602">
    <PP_R>
0.00000000000000E+00 1.00000000000000E-02 2.00000000000000E-02 3.00000000000000E-02 
4.00000000000000E-02 5.00000000000000E-02 6.00000000000000E-02 7.00000000000000E-02 
8.00000000000000E-02 9.00000000000000E-02 1.00000000000000E-01 1.10000000000000E-01 
1.20000000000000E-01 1.30000000000000E-01 1.40000000000000E-01 1.50000000000000E-01 
1.60000000000000E-01 1.70000000000000E-01 1.80000000000000E-01 1.90000000000000E-01 
2.00000000000000E-01 2.10000000000000E-01 2.20000000000000E-01 2.30000000000000E-01 
2.40000000000000E-01 2.50000000000000E-01 2.60000000000000E-01 2.70000000000000E-01 
2.80000000000000E-01 2.90000000000000E-01 3.00000000000000E-01 3.10000000000000E-01 
3.20000000000000E-01 3.30000000000000E-01 3.40000000000000E-01 3.50000000000000E-01 
3.60000000000000E-01 3.70000000000000E-01 3.80000000000000E-01 3.90000000000000E-01 
4.00000000000000E-01 4.10000000000000E-01 4.20000000000000E-01 4.30000000000000E-01 
4.40000000000000E-01 4.50000000000000E-01 4.60000000000000E-01 4.70000000000000E-01 
4.80000000000000E-01 4.90000000000000E-01 5.00000000000000E-01 5.10000000000000E-01 
5.20000000000000E-01 5.30000000000000E-01 5.40000000000000E-01 5.50000000000000E-01 
5.60000000000000E-01 5.70000000000000E-01 5.80000000000000E-01 5.90000000000000E-01 
6.00000000000000E-01 6.10000000000000E-01 6.20000000000000E-01 6.30000000000000E-01 
6.40000000000000E-01 6.50000000000000E-01 6.60000000000000E-01 6.70000000000000E-01 
6.80000000000000E-01 6.90000000000000E-01 7.00000000000000E-01 7.10000000000000E-01 
7.20000000000000E-01 7.30000000000000E-01 7.40000000000000E-01 7.50000000000000E-01 
7.60000000000000E-01 7.70000000000000E-01 7.80000000000000E-01 7.90000000000000E-01 
8.00000000000000E-01 8.10000000000000E-01 8.20000000000000E-01 8.30000000000000E-01 
8.40000000000000E-01 8.50000000000000E-01 8.60000000000000E-01 8.70000000000000E-01 
8.80000000000000E-01 8.90000000000000E-01 9.00000000000000E-01 9.10000000000000E-01 
9.20000000000000E-01 9.30000000000000E-01 9.40000000000000E-01 9.50000000000000E-01 
9.60000000000000E-01 9.70000000000000E-01 9.80000000000000E-01 9.90000000000000E-01 
1.00000000000000E+00 1.01000000000000E+00 1.02000000000000E+00 1.03000000000000E+00 
1.04000000000000E+00 1.05000000000000E+00 1.06000000000000E+00 1.07000000000000E+00 
1.08000000000000E+00 1.09000000000000E+00 1.10000000000000E+00 1.11000000000000E+00 
1.12000000000000E+00 1.13000000000000E+00 1.14000000000000E+00 1.15000000000000E+00 
1.16000000000000E+00 1.17000000000000E+00 1.18000000000000E+00 1.19000000000000E+00 
1.20000000000000E+00 1.21000000000000E+00 1.22000000000000E+00 1.23000000000000E+00 
1.24000000000000E+00 1.25000000000000E+00 1.26000000000000E+00 1.27000000000000E+00 
1.28000000000000E+00 1.29000000000000E+00 1.30000000000000E+00 1.31000000000000E+00 
1.32000000000000E+00 1.33000000000000E+00 1.34000000000000E+00 1.35000000000000E+00 
1.36000000000000E+00 1.37000000000000E+00 1.38000000000000E+00 1.39000000000000E+00 
1.40000000000000E+00 1.41000000000000E+00 1.42000000000000E+00 1.43000000000000E+00 
1.44000000000000E+00 1.45000000000000E+00 1.46000000000000E+00 1.47000000000000E+00 
1.48000000000000E+00 1.49000000000000E+00 1.50000000000000E+00 1.51000000000000E+00 
1.52000000000000E+00 1.53000000000000E+00 1.54000000000000E+00 1.55000000000000E+00 
1.56000000000000E+00 1.57000000000000E+00 1.58000000000000E+00 1.59000000000000E+00 
1.60000000000000E+00 1.61000000000000E+00 1.62000000000000E+00 1.63000000000000E+00 
1.64000000000000E+00 1.65000000000000E+00 1.66000000000000E+00 1.67000000000000E+00 
1.68000000000000E+00 1.69000000000000E+00 1.70000000000000E+00 1.71000000000000E+00 
1.72000000000000E+00 1.73000000000000E+00 1.74000000000000E+00 1.75000000000000E+00 
1.76000000000000E+00 1.77000000000000E+00 1.78000000000000E+00 1.79000000000000E+00 
1.80000000000000E+00 1.81000000000000E+00 1.82000000000000E+00 1.83000000000000E+00 
1.84000000000000E+00 1.85000000000000E+00 1.86000000000000E+00 1.87000000000000E+00 
1.88000000000000E+00 1.89000000000000E+00 1.90000000000000E+00 1.91000000000000E+00 
1.92000000000000E+00 1.93000000000000E+00 1.94000000000000E+00 1.95000000000000E+00 
1.96000000000000E+00 1.97000000000000E+00 1.98000000000000E+00 1.99000000000000E+00 
2.00000000000000E+00 2.01000000000000E+00 2.02000000000000E+00 2.03000000000000E+00 
2.04000000000000E+00 2.05000000000000E+00 2.06000000000000E+00 2.07000000000000E+00 
2.08000000000000E+00 2.09000000000000E+00 2.10000000000000E+00 2.11000000000000E+00 
2.12000000000000E+00 2.13000000000000E+00 2.14000000000000E+00 2.15000000000000E+00 
2.16000000000000E+00 2.17000000000000E+00 2.18000000000000E+00 2.19000000000000E+00 
2.20000000000000E+00 2.21000000000000E+00 2.22000000000000E+00 2.23000000000000E+00 
2.24000000000000E+00 2.25000000000000E+00 2.26000000000000E+00 2.27000000000000E+00 
2.28000000000000E+00 2.29000000000000E+00 2.30000000000000E+00 2.31000000000000E+00 
2.32000000000000E+00 2.33000000000000E+00 2.34000000000000E+00 2.35000000000000E+00 
2.36000000000000E+00 2.37000000000000E+00 2.38000000000000E+00 2.39000000000000E+00 
2.40000000000000E+00 2.41000000000000E+00 2.42000000000000E+00 2.43000000000000E+00 
2.44000000000000E+00 2.45000000000000E+00 2.46000000000000E+00 2.47000000000000E+00 
2.48000000000000E+00 2.49000000000000E+00 2.50000000000000E+00 2.51000000000000E+00 
2.52000000000000E+00 2.53000000000000E+00 2.54000000000000E+00 2.55000000000000E+00 
2.56000000000000E+00 2.57000000000000E+00 2.58000000000000E+00 2.59000000000000E+00 
2.60000000000000E+00 2.61000000000000E+00 2.62000000000000E+00 2.63000000000000E+00 
2.64000000000000E+00 2.65000000000000E+00 2.66000000000000E+00 2.67000000000000E+00 
2.68000000000000E+00 2.69000000000000E+00 2.70000000000000E+00 2.71000000000000E+00 
2.72000000000000E+00 2.73000000000000E+00 2.74000000000000E+00 2.75000000000000E+00 
2.76000000000000E+00 2.77000000000000E+00 2.78000000000000E+00 2.79000000000000E+00 
2.80000000000000E+00 2.81000000000000E+00 2.82000000000000E+00 2.83000000000000E+00 
2.84000000000000E+00 2.85000000000000E+00 2.86000000000000E+00 2.87000000000000E+00 
2.88000000000000E+00 2.89000000000000E+00 2.90000000000000E+00 2.91000000000000E+00 
2.92000000000000E+00 2.93000000000000E+00 2.94000000000000E+00 2.95000000000000E+00 
2.96000000000000E+00 2.97000000000000E+00 2.98000000000000E+00 2.99000000000000E+00 
3.00000000000000E+00 3.01000000000000E+00 3.02000000000000E+00 3.03000000000000E+00 
3.04000000000000E+00 3.05000000000000E+00 3.06000000000000E+00 3.07000000000000E+00 
3.08000000000000E+00 3.09000000000000E+00 3.10000000000000E+00 3.11000000000000E+00 
3.12000000000000E+00 3.13000000000000E+00 3.14000000000000E+00 3.15000000000000E+00 
3.16000000000000E+00 3.17000000000000E+00 3.18000000000000E+00 3.19000000000000E+00 
3.20000000000000E+00 3.21000000000000E+00 3.22000000000000E+00 3.23000000000000E+00 
3.24000000000000E+00 3.25000000000000E+00 3.26000000000000E+00 3.27000000000000E+00 
3.28000000000000E+00 3.29000000000000E+00 3.30000000000000E+00 3.31000000000000E+00 
3.32000000000000E+00 3.33000000000000E+00 3.34000000000000E+00 3.35000000000000E+00 
3.36000000000000E+00 3.37000000000000E+00 3.38000000000000E+00 3.39000000000000E+00 
3.40000000000000E+00 3.41000000000000E+00 3.42000000000000E+00 3.43000000000000E+00 
3.44000000000000E+00 3.45000000000000E+00 3.46000000000000E+00 3.47000000000000E+00 
3.48000000000000E+00 3.49000000000000E+00 3.50000000000000E+00 3.51000000000000E+00 
3.52000000000000E+00 3.53000000000000E+00 3.54000000000000E+00 3.55000000000000E+00 
3.56000000000000E+00 3.57000000000000E+00 3.58000000000000E+00 3.59000000000000E+00 
3.60000000000000E+00 3.61000000000000E+00 3.62000000000000E+00 3.63000000000000E+00 
3.64000000000000E+00 3.65000000000000E+00 3.66000000000000E+00 3.67000000000000E+00 
3.68000000000000E+00 3.69000000000000E+00 3.70000000000000E+00 3.71000000000000E+00 
3.72000000000000E+00 3.73000000000000E+00 3.74000000000000E+00 3.75000000000000E+00 
3.76000000000000E+00 3.77000000000000E+00 3.78000000000000E+00 3.79000000000000E+00 
3.80000000000000E+00 3.81000000000000E+00 3.82000000000000E+00 3.83000000000000E+00 
3.84000000000000E+00 3.85000000000000E+00 3.86000000000000E+00 3.87000000000000E+00 
3.88000000000000E+00 3.89000000000000E+00 3.90000000000000E+00 3.91000000000000E+00 
3.92000000000000E+00 3.93000000000000E+00 3.94000000000000E+00 3.95000000000000E+00 
3.96000000000000E+00 3.97000000000000E+00 3.98000000000000E+00 3.99000000000000E+00 
4.00000000000000E+00 4.01000000000000E+00 4.02000000000000E+00 4.03000000000000E+00 
4.04000000000000E+00 4.05000000000000E+00 4.06000000000000E+00 4.07000000000000E+00 
4.08000000000000E+00 4.09000000000000E+00 4.10000000000000E+00 4.11000000000000E+00 
4.12000000000000E+00 4.13000000000000E+00 4.14000000000000E+00 4.15000000000000E+00 
4.16000000000000E+00 4.17000000000000E+00 4.18000000000000E+00 4.19000000000000E+00 
4.20000000000000E+00 4.21000000000000E+00 4.22000000000000E+00 4.23000000000000E+00 
4.24000000000000E+00 4.25000000000000E+00 4.26000000000000E+00 4.27000000000000E+00 
4.28000000000000E+00 4.29000000000000E+00 4.30000000000000E+00 4.31000000000000E+00 
4.32000000000000E+00 4.33000000000000E+00 4.34000000000000E+00 4.35000000000000E+00 
4.36000000000000E+00 4.37000000000000E+00 4.38000000000000E+00 4.39000000000000E+00 
4.40000000000000E+00 4.41000000000000E+00 4.42000000000000E+00 4.43000000000000E+00 
4.44000000000000E+00 4.45000000000000E+00 4.46000000000000E+00 4.47000000000000E+00 
4.48000000000000E+00 4.49000000000000E+00 4.50000000000000E+00 4.51000000000000E+00 
4.52000000000000E+00 4.53000000000000E+00 4.54000000000000E+00 4.55000000000000E+00 
4.56000000000000E+00 4.57000000000000E+00 4.58000000000000E+00 4.59000000000000E+00 
4.60000000000000E+00 4.61000000000000E+00 4.62000000000000E+00 4.63000000000000E+00 
4.64000000000000E+00 4.65000000000000E+00 4.66000000000000E+00 4.67000000000000E+00 
4.68000000000000E+00 4.69000000000000E+00 4.70000000000000E+00 4.71000000000000E+00 
4.72000000000000E+00 4.73000000000000E+00 4.74000000000000E+00 4.75000000000000E+00 
4.76000000000000E+00 4.77000000000000E+00 4.78000000000000E+00 4.79000000000000E+00 
4.80000000000000E+00 4.81000000000000E+00 4.82000000000000E+00 4.83000000000000E+00 
4.84000000000000E+00 4.85000000000000E+00 4.86000000000000E+00 4.87000000000000E+00 
4.88000000000000E+00 4.89000000000000E+00 4.90000000000000E+00 4.91000000000000E+00 
4.92000000000000E+00 4.93000000000000E+00 4.94000000000000E+00 4.95000000000000E+00 
4.96000000000000E+00 4.97000000000000E+00 4.98000000000000E+00 4.99000000000000E+00 
5.00000000000000E+00 5.01000000000000E+00 5.02000000000000E+00 5.03000000000000E+00 
5.04000000000000E+00 5.05000000000000E+00 5.06000000000000E+00 5.07000000000000E+00 
5.08000000000000E+00 5.09000000000000E+00 5.10000000000000E+00 5.11000000000000E+00 
5.12000000000000E+00 5.13000000000000E+00 5.14000000000000E+00 5.15000000000000E+00 
5.16000000000000E+00 5.17000000000000E+00 5.18000000000000E+00 5.19000000000000E+00 
5.20000000000000E+00 5.21000000000000E+00 5.22000000000000E+00 5.23000000000000E+00 
5.24000000000000E+00 5.25000000000000E+00 5.26000000000000E+00 5.27000000000000E+00 
5.28000000000000E+00 5.29000000000000E+00 5.30000000000000E+00 5.31000000000000E+00 
5.32000000000000E+00 5.33000000000000E+00 5.34000000000000E+00 5.35000000000000E+00 
5.36000000000000E+00 5.37000000000000E+00 5.38000000000000E+00 5.39000000000000E+00 
5.40000000000000E+00 5.41000000000000E+00 5.42000000000000E+00 5.43000000000000E+00 
5.44000000000000E+00 5.45000000000000E+00 5.46000000000000E+00 5.47000000000000E+00 
5.48000000000000E+00 5.49000000000000E+00 5.50000000000000E+00 5.51000000000000E+00 
5.52000000000000E+00 5.53000000000000E+00 5.54000000000000E+00 5.55000000000000E+00 
5.56000000000000E+00 5.57000000000000E+00 5.58000000000000E+00 5.59000000000000E+00 
5.60000000000000E+00 5.61000000000000E+00 5.62000000000000E+00 5.63000000000000E+00 
5.64000000000000E+00 5.65000000000000E+00 5.66000000000000E+00 5.67000000000000E+00 
5.68000000000000E+00 5.69000000000000E+00 5.70000000000000E+00 5.71000000000000E+00 
5.72000000000000E+00 5.73000000000000E+00 5.74000000000000E+00 5.75000000000000E+00 
5.76000000000000E+00 5.77000000000000E+00 5.78000000000000E+00 5.79000000000000E+00 
5.80000000000000E+00 5.81000000000000E+00 5.82000000000000E+00 5.83000000000000E+00 
5.84000000000000E+00 5.85000000000000E+00 5.86000000000000E+00 5.87000000000000E+00 
5.88000000000000E+00 5.89000000000000E+00 5.90000000000000E+00 5.91000000000000E+00 
5.92000000000000E+00 5.93000000000000E+00 5.94000000000000E+00 5.95000000000000E+00 
5.96000000000000E+00 5.97000000000000E+00 5.98000000000000E+00 5.99000000000000E+00 
6.00000000000000E+00 6.01000000000000E+00 
</PP_R>
    <PP_RAB>
1.00000000000000E-02 1.00000000000000E-02 1.00000000000000E-02 1.00000000000000E-02 
1.00000000000000E-02 1.00000000000000E-02 1.00000000000000E-02 1.00000000000000E-02 
1.00000000000000E-02 1.00000000000000E-02 1.00000000000000E-02 1.00000000000000E-02 
1.00000000000000E-02 1.00000000000000E-02 1.00000000000000E-02 1.00000000000000E-02 
1.00000000000000E-02 1.00000000000000E-02 1.00000000000000E-02 1.00000000000000E-02 
1.00000000000000E-02 1.00000000000000E-02 1.00000000000000E-02 1.00000000000000E-02 
1.00000000000000E-02 1.00000000000000E-02 1.00000000000000E-02 1.00000000000000E-02 
1.00000000000000E-02 1.00000000000000E-02 1.00000000000000E-02 1.00000000000000E-02 
1.00000000000000E-02 1.00000000000000E-02 1.00000000000000E-02 1.00000000000000E-02 
1.00000000000000E-02 1.00000000000000E-02 1.00000000000000E-02 1.00000000000000E-02 
1.00000000000000E-02 1.00000000000000E-02 1.00000000000000E-02 1.00000000000000E-02 
1.00000000000000E-02 1.00000000000000E-02 1.00000000000000E-02 1.00000000000000E-02 
1.00000000000000E-02 1.00000000000000E-02 1.00000000000000E-02 1.00000000000000E-02 
1.00000000000000E-02 1.00000000000000E-02 1.00000000000000E-02 1.00000000000000E-02 
1.00000000000000E-02 1.00000000000000E-02 1.00000000000000E-02 1.00000000000000E-02 
1.00000000000000E-02 1.00000000000000E-02 1.00000000000000E-02 1.00000000000000E-02 
1.00000000000000E-02 1.00000000000000E-02 1.00000000000000E-02 1.00000000000000E-02 
1.00000000000000E-02 1.00000000000000E-02 1.00000000000000E-02 1.00000000000000E-02 
1.00000000000000E-02 1.00000000000000E-02 1.00000000000000E-02 1.00000000000000E-02 
1.00000000000000E-02 1.00000000000000E-02 1.00000000000000E-02 1.00000000000000E-02 
1.00000000000000E-02 1.00000000000000E-02 1.00000000000000E-02 1.00000000000000E-02 
1.00000000000000E-02 1.00000000000000E-02 1.00000000000000E-02 1.00000000000000E-02 
1.00000000000000E-02 1.00000000000000E-02 1.00000000000000E-02 1.00000000000000E-02 
1.00000000000000E-02 1.00000000000000E-02 1.00000000000000E-02 1.00000000000000E-02 
1.00000000000000E-02 1.00000000000000E-02 1.00000000000000E-02 1.00000000000000E-02 
1.00000000000000E-02 1.00000000000000E-02 1.00000000000000E-02 1.00000000000000E-02 
1.00000000000000E-02 1.00000000000000E-02 1.00000000000000E-02 1.00000000000000E-02 
1.00000000000000E-02 1.00000000000000E-02 1.00000000000000E-02 1.00000000000000E-02 
1.00000000000000E-02 1.00000000000000E-02 1.00000000000000E-02 1.00000000000000E-02 
1.00000000000000E-02 1.00000000000000E-02 1.00000000000000E-02 1.00000000000000E-02 
1.00000000000000E-02 1.00000000000000E-02 1.00000000000000E-02 1.00000000000000E-02 
1.00000000000000E-02 1.00000000000000E-02 1.00000000000000E-02 1.00000000000000E-02 
1.00000000000000E-02 1.00000000000000E-02 1.00000000000000E-02 1.00000000000000E-02 
1.00000000000000E-02 1.00000000000000E-02 1.00000000000000E-02 1.00000000000000E-02 
1.00000000000000E-02 1.00000000000000E-02 1.00000000000000E-02 1.00000000000000E-02 
1.00000000000000E-02 1.00000000000000E-02 1.00000000000000E-02 1.00000000000000E-02 
1.00000000000000E-02 1.00000000000000E-02 1.00000000000000E-02 1.00000000000000E-02 
1.00000000000000E-02 1.00000000000000E-02 1.00000000000000E-02 1.00000000000000E-02 
1.00000000000000E-02 1.00000000000000E-02 1.00000000000000E-02 1.00000000000000E-02 
1.00000000000000E-02 1.00000000000000E-02 1.00000000000000E-02 1.00000000000000E-02 
1.00000000000000E-02 1.00000000000000E-02 1.00000000000000E-02 1.00000000000000E-02 
1.00000000000000E-02 1.00000000000000E-02 1.00000000000000E-02 1.00000000000000E-02 
1.00000000000000E-02 1.00000000000000E-02 1.00000000000000E-02 1.00000000000000E-02 
1.00000000000000E-02 1.00000000000000E-02 1.00000000000000E-02 1.00000000000000E-02 
1.00000000000000E-02 1.00000000000000E-02 1.00000000000000E-02 1.00000000000000E-02 
1.00000000000000E-02 1.00000000000000E-02 1.00000000000000E-02 1.00000000000000E-02 
1.00000000000000E-02 1.00000000000000E-02 1.00000000000000E-02 1.00000000000000E-02 
1.00000000000000E-02 1.00000000000000E-02 1.00000000000000E-02 1.00000000000000E-02 
1.00000000000000E-02 1.00000000000000E-02 1.00000000000000E-02 1.00000000000000E-02 
1.00000000000000E-02 1.00000000000000E-02 1.00000000000000E-02 1.00000000000000E-02 
1.00000000000000E-02 1.00000000000000E-02 1.00000000000000E-02 1.00000000000000E-02 
1.00000000000000E-02 1.00000000000000E-02 1.00000000000000E-02 1.00000000000000E-02 
1.00000000000000E-02 1.00000000000000E-02 1.00000000000000E-02 1.00000000000000E-02 
1.00000000000000E-02 1.00000000000000E-02 1.00000000000000E-02 1.00000000000000E-02 
1.00000000000000E-02 1.00000000000000E-02 1.00000000000000E-02 1.00000000000000E-02 
1.00000000000000E-02 1.00000000000000E-02 1.00000000000000E-02 1.00000000000000E-02 
1.00000000000000E-02 1.00000000000000E-02 1.00000000000000E-02 1.00000000000000E-02 
1.00000000000000E-02 1.00000000000000E-02 1.00000000000000E-02 1.00000000000000E-02 
1.00000000000000E-02 1.00000000000000E-02 1.00000000000000E-02 1.00000000000000E-02 
1.00000000000000E-02 1.00000000000000E-02 1.00000000000000E-02 1.00000000000000E-02 
1.00000000000000E-02 1.00000000000000E-02 1.00000000000000E-02 1.00000000000000E-02 
1.00000000000000E-02 1.00000000000000E-02 1.00000000000000E-02 1.00000000000000E-02 
1.00000000000000E-02 1.00000000000000E-02 1.00000000000000E-02 1.00000000000000E-02 
1.00000000000000E-02 1.00000000000000E-02 1.00000000000000E-02 1.00000000000000E-02 
1.00000000000000E-02 1.00000000000000E-02 1.00000000000000E-02 1.00000000000000E-02 
1.00000000000000E-02 1.00000000000000E-02 1.00000000000000E-02 1.00000000000000E-02 
1.00000000000000E-02 1.00000000000000E-02 1.00000000000000E-02 1.00000000000000E-02 
1.00000000000000E-02 1.00000000000000E-02 1.00000000000000E-02 1.00000000000000E-02 
1.00000000000000E-02 1.00000000000000E-02 1.00000000000000E-02 1.00000000000000E-02 
1.00000000000000E-02 1.00000000000000E-02 1.00000000000000E-02 1.00000000000000E-02 
1.00000000000000E-02 1.00000000000000E-02 1.00000000000000E-02 1.00000000000000E-02 
1.00000000000000E-02 1.00000000000000E-02 1.00000000000000E-02 1.00000000000000E-02 
1.00000000000000E-02 1.00000000000000E-02 1.00000000000000E-02 1.00000000000000E-02 
1.00000000000000E-02 1.00000000000000E-02 1.00000000000000E-02 1.00000000000000E-02 
1.00000000000000E-02 1.00000000000000E-02 1.00000000000000E-02 1.00000000000000E-02 
1.00000000000000E-02 1.00000000000000E-02 1.00000000000000E-02 1.00000000000000E-02 
1.00000000000000E-02 1.00000000000000E-02 1.00000000000000E-02 1.00000000000000E-02 
1.00000000000000E-02 1.00000000000000E-02 1.00000000000000E-02 1.00000000000000E-02 
1.00000000000000E-02 1.00000000000000E-02 1.00000000000000E-02 1.00000000000000E-02 
1.00000000000000E-02 1.00000000000000E-02 1.00000000000000E-02 1.00000000000000E-02 
1.00000000000000E-02 1.00000000000000E-02 1.00000000000000E-02 1.00000000000000E-02 
1.00000000000000E-02 1.00000000000000E-02 1.00000000000000E-02 1.00000000000000E-02 
1.00000000000000E-02 1.00000000000000E-02 1.00000000000000E-02 1.00000000000000E-02 
1.00000000000000E-02 1.00000000000000E-02 1.00000000000000E-02 1.00000000000000E-02 
1.00000000000000E-02 1.00000000000000E-02 1.00000000000000E-02 1.00000000000000E-02 
1.00000000000000E-02 1.00000000000000E-02 1.00000000000000E-02 1.00000000000000E-02 
1.00000000000000E-02 1.00000000000000E-02 1.00000000000000E-02 1.00000000000000E-02 
1.00000000000000E-02 1.00000000000000E-02 1.00000000000000E-02 1.00000000000000E-02 
1.00000000000000E-02 1.00000000000000E-02 1.00000000000000E-02 1.00000000000000E-02 
1.00000000000000E-02 1.00000000000000E-02 1.00000000000000E-02 1.00000000000000E-02 
1.00000000000000E-02 1.00000000000000E-02 1.00000000000000E-02 1.00000000000000E-02 
1.00000000000000E-02 1.00000000000000E-02 1.00000000000000E-02 1.00000000000000E-02 
1.00000000000000E-02 1.00000000000000E-02 1.00000000000000E-02 1.00000000000000E-02 
1.00000000000000E-02 1.00000000000000E-02 1.00000000000000E-02 1.00000000000000E-02 
1.00000000000000E-02 1.00000000000000E-02 1.00000000000000E-02 1.00000000000000E-02 
1.00000000000000E-02 1.00000000000000E-02 1.00000000000000E-02 1.00000000000000E-02 
1.00000000000000E-02 1.00000000000000E-02 1.00000000000000E-02 1.00000000000000E-02 
1.00000000000000E-02 1.00000000000000E-02 1.00000000000000E-02 1.00000000000000E-02 
1.00000000000000E-02 1.00000000000000E-02 1.00000000000000E-02 1.00000000000000E-02 
1.00000000000000E-02 1.00000000000000E-02 1.00000000000000E-02 1.00000000000000E-02 
1.00000000000000E-02 1.00000000000000E-02 1.00000000000000E-02 1.00000000000000E-02 
1.00000000000000E-02 1.00000000000000E-02 1.00000000000000E-02 1.00000000000000E-02 
1.00000000000000E-02 1.00000000000000E-02 1.00000000000000E-02 1.00000000000000E-02 
1.00000000000000E-02 1.00000000000000E-02 1.00000000000000E-02 1.00000000000000E-02 
1.00000000000000E-02 1.00000000000000E-02 1.00000000000000E-02 1.00000000000000E-02 
1.00000000000000E-02 1.00000000000000E-02 1.00000000000000E-02 1.00000000000000E-02 
1.00000000000000E-02 1.00000000000000E-02 1.00000000000000E-02 1.00000000000000E-02 
1.00000000000000E-02 1.00000000000000E-02 1.00000000000000E-02 1.00000000000000E-02 
1.00000000000000E-02 1.00000000000000E-02 1.00000000000000E-02 1.00000000000000E-02 
1.00000000000000E-02 1.00000000000000E-02 1.00000000000000E-02 1.00000000000000E-02 
1.00000000000000E-02 1.00000000000000E-02 1.00000000000000E-02 1.00000000000000E-02 
1.00000000000000E-02 1.00000000000000E-02 1.00000000000000E-02 1.00000000000000E-02 
1.00000000000000E-02 1.00000000000000E-02 1.00000000000000E-02 1.00000000000000E-02 
1.00000000000000E-02 1.00000000000000E-02 1.00000000000000E-02 1.00000000000000E-02 
1.00000000000000E-02 1.00000000000000E-02 1.00000000000000E-02 1.00000000000000E-02 
1.00000000000000E-02 1.00000000000000E-02 1.00000000000000E-02 1.00000000000000E-02 
1.00000000000000E-02 1.00000000000000E-02 1.00000000000000E-02 1.00000000000000E-02 
1.00000000000000E-02 1.00000000000000E-02 1.00000000000000E-02 1.00000000000000E-02 
1.00000000000000E-02 1.00000000000000E-02 1.00000000000000E-02 1.00000000000000E-02 
1.00000000000000E-02 1.00000000000000E-02 1.00000000000000E-02 1.00000000000000E-02 
1.00000000000000E-02 1.00000000000000E-02 1.00000000000000E-02 1.00000000000000E-02 
1.00000000000000E-02 1.00000000000000E-02 1.00000000000000E-02 1.00000000000000E-02 
1.00000000000000E-02 1.00000000000000E-02 1.00000000000000E-02 1.00000000000000E-02 
1.00000000000000E-02 1.00000000000000E-02 1.00000000000000E-02 1.00000000000000E-02 
1.00000000000000E-02 1.00000000000000E-02 1.00000000000000E-02 1.00000000000000E-02 
1.00000000000000E-02 1.00000000000000E-02 1.00000000000000E-02 1.00000000000000E-02 
1.00000000000000E-02 1.00000000000000E-02 1.00000000000000E-02 1.00000000000000E-02 
1.00000000000000E-02 1.00000000000000E-02 1.00000000000000E-02 1.00000000000000E-02 
1.00000000000000E-02 1.00000000000000E-02 1.00000000000000E-02 1.00000000000000E-02 
1.00000000000000E-02 1.00000000000000E-02 1.00000000000000E-02 1.00000000000000E-02 
1.00000000000000E-02 1.00000000000000E-02 1.00000000000000E-02 1.00000000000000E-02 
1.00000000000000E-02 1.00000000000000E-02 1.00000000000000E-02 1.00000000000000E-02 
1.00000000000000E-02 1.00000000000000E-02 1.00000000000000E-02 1.00000000000000E-02 
1.00000000000000E-02 1.00000000000000E-02 1.00000000000000E-02 1.00000000000000E-02 
1.00000000000000E-02 1.00000000000000E-02 1.00000000000000E-02 1.00000000000000E-02 
1.00000000000000E-02 1.00000000000000E-02 1.00000000000000E-02 1.00000000000000E-02 
1.00000000000000E-02 1.00000000000000E-02 1.00000000000000E-02 1.00000000000000E-02 
1.00000000000000E-02 1.00000000000000E-02 1.00000000000000E-02 1.00000000000000E-02 
1.00000000000000E-02 1.00000000000000E-02 1.00000000000000E-02 1.00000000000000E-02 
1.00000000000000E-02 1.00000000000000E-02 1.00000000000000E-02 1.00000000000000E-02 
1.00000000000000E-02 1.00000000000000E-02 1.00000000000000E-02 1.00000000000000E-02 
1.00000000000000E-02 1.00000000000000E-02 1.00000000000000E-02 1.00000000000000E-02 
1.00000000000000E-02 1.00000000000000E-02 1.00000000000000E-02 1.00000000000000E-02 
1.00000000000000E-02 1.00000000000000E-02 1.00000000000000E-02 1.00000000000000E-02 
1.00000000000000E-02 1.00000000000000E-02 1.00000000000000E-02 1.00000000000000E-02 
1.00000000000000E-02 1.00000000000000E-02 1.00000000000000E-02 1.00000000000000E-02 
1.00000000000000E-02 1.00000000000000E-02 1.00000000000000E-02 1.00000000000000E-02 
1.00000000000000E-02 1.00000000000000E-02 1.00000000000000E-02 1.00000000000000E-02 
1.00000000000000E-02 1.00000000000000E-02 1.00000000000000E-02 1.00000000000000E-02 
1.00000000000000E-02 1.00000000000000E-02 1.00000000000000E-02 1.00000000000000E-02 
1.00000000000000E-02 1.00000000000000E-02 
</PP_RAB>
  </PP_MESH>
  <PP_NLCC>
4.96249389830000E+00 4.96165864810000E+00 4.95915368760000E+00 4.95498138500000E+00 
4.94914568360000E+00 4.94165209590000E+00 4.93250769520000E+00 4.92172110560000E+00 
4.90930248900000E+00 4.89526352980000E+00 4.87961741860000E+00 4.86237883160000E+00 
4.84356391020000E+00 4.82319023640000E+00 4.80127680770000E+00 4.77784400900000E+00 
4.75291358290000E+00 4.72650859810000E+00 4.69865341620000E+00 4.66937365590000E+00 
4.63869615640000E+00 4.60664893890000E+00 4.57326116590000E+00 4.53856309990000E+00 
4.50258606040000E+00 4.46536237890000E+00 4.42692535400000E+00 4.38730920380000E+00 
4.34654901860000E+00 4.30468071120000E+00 4.26174096800000E+00 4.21776719780000E+00 
4.17279748030000E+00 4.12687051480000E+00 4.08002556690000E+00 4.03230241630000E+00 
3.98374130300000E+00 3.93438287400000E+00 3.88426812980000E+00 3.83343837020000E+00 
3.78193514130000E+00 3.72980018120000E+00 3.67707536740000E+00 3.62380266320000E+00 
3.57002406540000E+00 3.51578155210000E+00 3.46111703130000E+00 3.40607228950000E+00 
3.35068894240000E+00 3.29500838460000E+00 3.23907174210000E+00 3.18291982400000E+00 
3.12659307670000E+00 3.07013153830000E+00 3.01357479450000E+00 2.95696193580000E+00 
2.90033151570000E+00 2.84372151070000E+00 2.78716928150000E+00 2.73071153540000E+00 
2.67438429060000E+00 2.61822284190000E+00 2.56226172790000E+00 2.50653469990000E+00 
2.45107469280000E+00 2.39591379670000E+00 2.34108323160000E+00 2.28661332230000E+00 
2.23253347660000E+00 2.17887216390000E+00 2.12565689670000E+00 2.07291421260000E+00 
2.02066965960000E+00 1.96894778180000E+00 1.91777210800000E+00 1.86716514090000E+00 
1.81714834910000E+00 1.76774216030000E+00 1.71896595640000E+00 1.67083807020000E+00 
1.62337578350000E+00 1.57659532760000E+00 1.53051188490000E+00 1.48513959160000E+00 
1.44049154330000E+00 1.39657980050000E+00 1.35341539700000E+00 1.31100834870000E+00 
1.26936766430000E+00 1.22850135720000E+00 1.18841645880000E+00 1.14911903240000E+00 
1.11061418970000E+00 1.07290610660000E+00 1.03599804160000E+00 9.99892354560000E-01 
9.64590526210000E-01 9.30093179130000E-01 8.96400099140000E-01 8.63510257740000E-01 