<?xml version="1.0" encoding="UTF-8"?>
<UPF version="2.0.1">
  <PP_INFO>

This pseudopotential file has been produced using the code
ONCVPSP  (Optimized Norm-Conservinng Vanderbilt PSeudopotential)
scalar-relativistic version 3.3.0 08/16/2017 by D. R. Hamann
The code is available through a link at URL www.mat-simresearch.com.
Documentation with the package provides a full discription of the
input data below.


While it is not required under the terms of the GNU GPL, it is
suggested that you cite D. R. Hamann, Phys. Rev. B 88, 085117 (2013)
in any publication using these pseudopotentials.


# ATOM AND REFERENCE CONFIGURATION
# atsym  z   nc   nv     iexc    psfile
Pd 46.00    6    3       4      upf
#
#   n    l    f        energy (Ha)
1    0    2.00
2    0    2.00
2    1    6.00
3    0    2.00
3    1    6.00
3    2   10.00
4    0    2.00
4    1    6.00
4    2   10.00
#
# PSEUDOPOTENTIAL AND OPTIMIZATION
# lmax
2
#
#   l,   rc,      ep,       ncon, nbas, qcut
0   1.40000  -3.13589    4    7   8.80000
1   1.45000  -1.88153    4    7   8.80000
2   1.55000  -0.14875    4    7   8.80000
#
# LOCAL POTENTIAL
# lloc, lpopt,  rc(5),   dvloc0
4    5   1.40000      0.00000
#
# VANDERBILT-KLEINMAN-BYLANDER PROJECTORs
# l, nproj, debl
0    2   3.01381
1    2   1.87003
2    2   1.50000
#
# MODEL CORE CHARGE
# icmod, fcfact, rcfact
3   7.00000   1.23000
#
# LOG DERIVATIVE ANALYSIS
# epsh1, epsh2, depsh
-14.00   12.00    0.02
#
# OUTPUT GRID
# rlmax, drl
6.00    0.01
#
# TEST CONFIGURATIONS
# ncnf
0
# nvcnf
#   n    l    f

</PP_INFO>
  <PP_HEADER generated="Generated using ONCVPSP code by D. R. Hamann" author="anonymous" date="171031" comment="" element="Pd" pseudo_type="NC" relativistic="scalar" is_ultrasoft="F" is_paw="F" is_coulomb="F" has_so="F" has_wfc="F" has_gipaw="F" core_correction="T" functional="PBE" z_valence="18.0" total_psenergy="-256.432277659" rho_cutoff="12.51" l_max="2" l_local="-1" mesh_size="602" number_of_wfc="3" number_of_proj="6"/>
  <PP_MESH mesh="602">
    <PP_R>
0.00000000000000E+00 1.00000000000000E-02 2.00000000000000E-02 3.00000000000000E-02 
4.00000000000000E-02 5.00000000000000E-02 6.00000000000000E-02 7.00000000000000E-02 
8.00000000000000E-02 9.00000000000000E-02 1.00000000000000E-01 1.10000000000000E-01 
1.20000000000000E-01 1.30000000000000E-01 1.40000000000000E-01 1.50000000000000E-01 
1.60000000000000E-01 1.70000000000000E-01 1.80000000000000E-01 1.90000000000000E-01 
2.00000000000000E-01 2.10000000000000E-01 2.20000000000000E-01 2.30000000000000E-01 
2.40000000000000E-01 2.50000000000000E-01 2.60000000000000E-01 2.70000000000000E-01 
2.80000000000000E-01 2.90000000000000E-01 3.00000000000000E-01 3.10000000000000E-01 
3.20000000000000E-01 3.30000000000000E-01 3.40000000000000E-01 3.50000000000000E-01 
3.60000000000000E-01 3.70000000000000E-01 3.80000000000000E-01 3.90000000000000E-01 
4.00000000000000E-01 4.10000000000000E-01 4.20000000000000E-01 4.30000000000000E-01 
4.40000000000000E-01 4.50000000000000E-01 4.60000000000000E-01 4.70000000000000E-01 
4.80000000000000E-01 4.90000000000000E-01 5.00000000000000E-01 5.10000000000000E-01 
5.20000000000000E-01 5.30000000000000E-01 5.40000000000000E-01 5.50000000000000E-01 
5.60000000000000E-01 5.70000000000000E-01 5.80000000000000E-01 5.90000000000000E-01 
6.00000000000000E-01 6.10000000000000E-01 6.20000000000000E-01 6.30000000000000E-01 
6.40000000000000E-01 6.50000000000000E-01 6.60000000000000E-01 6.70000000000000E-01 
6.80000000000000E-01 6.90000000000000E-01 7.00000000000000E-01 7.10000000000000E-01 
7.20000000000000E-01 7.30000000000000E-01 7.40000000000000E-01 7.50000000000000E-01 
7.60000000000000E-01 7.70000000000000E-01 7.80000000000000E-01 7.90000000000000E-01 
8.00000000000000E-01 8.10000000000000E-01 8.20000000000000E-01 8.30000000000000E-01 
8.40000000000000E-01 8.50000000000000E-01 8.60000000000000E-01 8.70000000000000E-01 
8.80000000000000E-01 8.90000000000000E-01 9.00000000000000E-01 9.10000000000000E-01 
9.20000000000000E-01 9.30000000000000E-01 9.40000000000000E-01 9.50000000000000E-01 
9.60000000000000E-01 9.70000000000000E-01 9.80000000000000E-01 9.90000000000000E-01 
1.00000000000000E+00 1.01000000000000E+00 1.02000000000000E+00 1.03000000000000E+00 
1.04000000000000E+00 1.05000000000000E+00 1.06000000000000E+00 1.07000000000000E+00 
1.08000000000000E+00 1.09000000000000E+00 1.10000000000000E+00 1.11000000000000E+00 
1.12000000000000E+00 1.13000000000000E+00 1.14000000000000E+00 1.15000000000000E+00 
1.16000000000000E+00 1.17000000000000E+00 1.18000000000000E+00 1.19000000000000E+00 
1.20000000000000E+00 1.21000000000000E+00 1.22000000000000E+00 1.23000000000000E+00 
1.24000000000000E+00 1.25000000000000E+00 1.26000000000000E+00 1.27000000000000E+00 
1.28000000000000E+00 1.29000000000000E+00 1.30000000000000E+00 1.31000000000000E+00 
1.32000000000000E+00 1.33000000000000E+00 1.34000000000000E+00 1.35000000000000E+00 
1.36000000000000E+00 1.37000000000000E+00 1.38000000000000E+00 1.39000000000000E+00 
1.40000000000000E+00 1.41000000000000E+00 1.42000000000000E+00 1.43000000000000E+00 
1.44000000000000E+00 1.45000000000000E+00 1.46000000000000E+00 1.47000000000000E+00 
1.48000000000000E+00 1.49000000000000E+00 1.50000000000000E+00 1.51000000000000E+00 
1.52000000000000E+00 1.53000000000000E+00 1.54000000000000E+00 1.55000000000000E+00 
1.56000000000000E+00 1.57000000000000E+00 1.58000000000000E+00 1.59000000000000E+00 
1.60000000000000E+00 1.61000000000000E+00 1.62000000000000E+00 1.63000000000000E+00 
1.64000000000000E+00 1.65000000000000E+00 1.66000000000000E+00 1.67000000000000E+00 
1.68000000000000E+00 1.69000000000000E+00 1.70000000000000E+00 1.71000000000000E+00 
1.72000000000000E+00 1.73000000000000E+00 1.74000000000000E+00 1.75000000000000E+00 
1.76000000000000E+00 1.77000000000000E+00 1.78000000000000E+00 1.79000000000000E+00 
1.80000000000000E+00 1.81000000000000E+00 1.82000000000000E+00 1.83000000000000E+00 
1.84000000000000E+00 1.85000000000000E+00 1.86000000000000E+00 1.87000000000000E+00 
1.88000000000000E+00 1.89000000000000E+00 1.90000000000000E+00 1.91000000000000E+00 
1.92000000000000E+00 1.93000000000000E+00 1.94000000000000E+00 1.95000000000000E+00 
1.96000000000000E+00 1.97000000000000E+00 1.98000000000000E+00 1.99000000000000E+00 
2.00000000000000E+00 2.01000000000000E+00 2.02000000000000E+00 2.03000000000000E+00 
2.04000000000000E+00 2.05000000000000E+00 2.06000000000000E+00 2.07000000000000E+00 
2.08000000000000E+00 2.09000000000000E+00 2.10000000000000E+00 2.11000000000000E+00 
2.12000000000000E+00 2.13000000000000E+00 2.14000000000000E+00 2.15000000000000E+00 
2.16000000000000E+00 2.17000000000000E+00 2.18000000000000E+00 2.19000000000000E+00 
2.20000000000000E+00 2.21000000000000E+00 2.22000000000000E+00 2.23000000000000E+00 
2.24000000000000E+00 2.25000000000000E+00 2.26000000000000E+00 2.27000000000000E+00 
2.28000000000000E+00 2.29000000000000E+00 2.30000000000000E+00 2.31000000000000E+00 
2.32000000000000E+00 2.33000000000000E+00 2.34000000000000E+00 2.35000000000000E+00 
2.36000000000000E+00 2.37000000000000E+00 2.38000000000000E+00 2.39000000000000E+00 
2.40000000000000E+00 2.41000000000000E+00 2.42000000000000E+00 2.43000000000000E+00 
2.44000000000000E+00 2.45000000000000E+00 2.46000000000000E+00 2.47000000000000E+00 
2.48000000000000E+00 2.49000000000000E+00 2.50000000000000E+00 2.51000000000000E+00 
2.52000000000000E+00 2.53000000000000E+00 2.54000000000000E+00 2.55000000000000E+00 
2.56000000000000E+00 2.57000000000000E+00 2.58000000000000E+00 2.59000000000000E+00 
2.60000000000000E+00 2.61000000000000E+00 2.62000000000000E+00 2.63000000000000E+00 
2.64000000000000E+00 2.65000000000000E+00 2.66000000000000E+00 2.67000000000000E+00 
2.68000000000000E+00 2.69000000000000E+00 2.70000000000000E+00 2.71000000000000E+00 
2.72000000000000E+00 2.73000000000000E+00 2.74000000000000E+00 2.75000000000000E+00 
2.76000000000000E+00 2.77000000000000E+00 2.78000000000000E+00 2.79000000000000E+00 
2.80000000000000E+00 2.81000000000000E+00 2.82000000000000E+00 2.83000000000000E+00 
2.84000000000000E+00 2.85000000000000E+00 2.86000000000000E+00 2.87000000000000E+00 
2.88000000000000E+00 2.89000000000000E+00 2.90000000000000E+00 2.91000000000000E+00 
2.92000000000000E+00 2.93000000000000E+00 2.94000000000000E+00 2.95000000000000E+00 
2.96000000000000E+00 2.97000000000000E+00 2.98000000000000E+00 2.99000000000000E+00 
3.00000000000000E+00 3.01000000000000E+00 3.02000000000000E+00 3.03000000000000E+00 
3.04000000000000E+00 3.05000000000000E+00 3.06000000000000E+00 3.07000000000000E+00 
3.08000000000000E+00 3.09000000000000E+00 3.10000000000000E+00 3.11000000000000E+00 
3.12000000000000E+00 3.13000000000000E+00 3.14000000000000E+00 3.15000000000000E+00 
3.16000000000000E+00 3.17000000000000E+00 3.18000000000000E+00 3.19000000000000E+00 
3.20000000000000E+00 3.21000000000000E+00 3.22000000000000E+00 3.23000000000000E+00 
3.24000000000000E+00 3.25000000000000E+00 3.26000000000000E+00 3.27000000000000E+00 
3.28000000000000E+00 3.29000000000000E+00 3.30000000000000E+00 3.31000000000000E+00 
3.32000000000000E+00 3.33000000000000E+00 3.34000000000000E+00 3.35000000000000E+00 
3.36000000000000E+00 3.37000000000000E+00 3.38000000000000E+00 3.39000000000000E+00 
3.40000000000000E+00 3.41000000000000E+00 3.42000000000000E+00 3.43000000000000E+00 
3.44000000000000E+00 3.45000000000000E+00 3.46000000000000E+00 3.47000000000000E+00 
3.48000000000000E+00 3.49000000000000E+00 3.50000000000000E+00 3.51000000000000E+00 
3.52000000000000E+00 3.53000000000000E+00 3.54000000000000E+00 3.55000000000000E+00 
3.56000000000000E+00 3.57000000000000E+00 3.58000000000000E+00 3.59000000000000E+00 
3.60000000000000E+00 3.61000000000000E+00 3.62000000000000E+00 3.63000000000000E+00 
3.64000000000000E+00 3.65000000000000E+00 3.66000000000000E+00 3.67000000000000E+00 
3.68000000000000E+00 3.69000000000000E+00 3.70000000000000E+00 3.71000000000000E+00 
3.72000000000000E+00 3.73000000000000E+00 3.74000000000000E+00 3.75000000000000E+00 
3.76000000000000E+00 3.77000000000000E+00 3.78000000000000E+00 3.79000000000000E+00 
3.80000000000000E+00 3.81000000000000E+00 3.82000000000000E+00 3.83000000000000E+00 
3.84000000000000E+00 3.85000000000000E+00 3.86000000000000E+00 3.87000000000000E+00 
3.88000000000000E+00 3.89000000000000E+00 3.90000000000000E+00 3.91000000000000E+00 
3.92000000000000E+00 3.93000000000000E+00 3.94000000000000E+00 3.95000000000000E+00 
3.96000000000000E+00 3.97000000000000E+00 3.98000000000000E+00 3.99000000000000E+00 
4.00000000000000E+00 4.01000000000000E+00 4.02000000000000E+00 4.03000000000000E+00 
4.04000000000000E+00 4.05000000000000E+00 4.06000000000000E+00 4.07000000000000E+00 
4.08000000000000E+00 4.09000000000000E+00 4.10000000000000E+00 4.11000000000000E+00 
4.12000000000000E+00 4.13000000000000E+00 4.14000000000000E+00 4.15000000000000E+00 
4.16000000000000E+00 4.17000000000000E+00 4.18000000000000E+00 4.19000000000000E+00 
4.20000000000000E+00 4.21000000000000E+00 4.22000000000000E+00 4.23000000000000E+00 
4.24000000000000E+00 4.25000000000000E+00 4.26000000000000E+00 4.27000000000000E+00 
4.28000000000000E+00 4.29000000000000E+00 4.30000000000000E+00 4.31000000000000E+00 
4.32000000000000E+00 4.33000000000000E+00 4.34000000000000E+00 4.35000000000000E+00 
4.36000000000000E+00 4.37000000000000E+00 4.38000000000000E+00 4.39000000000000E+00 
4.40000000000000E+00 4.41000000000000E+00 4.42000000000000E+00 4.43000000000000E+00 
4.44000000000000E+00 4.45000000000000E+00 4.46000000000000E+00 4.47000000000000E+00 
4.48000000000000E+00 4.49000000000000E+00 4.50000000000000E+00 4.51000000000000E+00 
4.52000000000000E+00 4.53000000000000E+00 4.54000000000000E+00 4.55000000000000E+00 
4.56000000000000E+00 4.57000000000000E+00 4.58000000000000E+00 4.59000000000000E+00 
4.60000000000000E+00 4.61000000000000E+00 4.62000000000000E+00 4.63000000000000E+00 
4.64000000000000E+00 4.65000000000000E+00 4.66000000000000E+00 4.67000000000000E+00 
4.68000000000000E+00 4.69000000000000E+00 4.70000000000000E+00 4.71000000000000E+00 
4.72000000000000E+00 4.73000000000000E+00 4.74000000000000E+00 4.75000000000000E+00 
4.76000000000000E+00 4.77000000000000E+00 4.78000000000000E+00 4.79000000000000E+00 
4.80000000000000E+00 4.81000000000000E+00 4.82000000000000E+00 4.83000000000000E+00 
4.84000000000000E+00 4.85000000000000E+00 4.86000000000000E+00 4.87000000000000E+00 
4.88000000000000E+00 4.89000000000000E+00 4.90000000000000E+00 4.91000000000000E+00 
4.92000000000000E+00 4.93000000000000E+00 4.94000000000000E+00 4.95000000000000E+00 
4.96000000000000E+00 4.97000000000000E+00 4.98000000000000E+00 4.99000000000000E+00 
5.00000000000000E+00 5.01000000000000E+00 5.02000000000000E+00 5.03000000000000E+00 
5.04000000000000E+00 5.05000000000000E+00 5.06000000000000E+00 5.07000000000000E+00 
5.08000000000000E+00 5.09000000000000E+00 5.10000000000000E+00 5.11000000000000E+00 
5.12000000000000E+00 5.13000000000000E+00 5.14000000000000E+00 5.15000000000000E+00 
5.16000000000000E+00 5.17000000000000E+00 5.18000000000000E+00 5.19000000000000E+00 
5.20000000000000E+00 5.21000000000000E+00 5.22000000000000E+00 5.23000000000000E+00 
5.24000000000000E+00 5.25000000000000E+00 5.26000000000000E+00 5.27000000000000E+00 
5.28000000000000E+00 5.29000000000000E+00 5.30000000000000E+00 5.31000000000000E+00 
5.32000000000000E+00 5.33000000000000E+00 5.34000000000000E+00 5.35000000000000E+00 
5.36000000000000E+00 5.37000000000000E+00 5.38000000000000E+00 5.39000000000000E+00 
5.40000000000000E+00 5.41000000000000E+00 5.42000000000000E+00 5.43000000000000E+00 
5.44000000000000E+00 5.45000000000000E+00 5.46000000000000E+00 5.47000000000000E+00 
5.48000000000000E+00 5.49000000000000E+00 5.50000000000000E+00 5.51000000000000E+00 
5.52000000000000E+00 5.53000000000000E+00 5.54000000000000E+00 5.55000000000000E+00 
5.56000000000000E+00 5.57000000000000E+00 5.58000000000000E+00 5.59000000000000E+00 
5.60000000000000E+00 5.61000000000000E+00 5.62000000000000E+00 5.63000000000000E+00 
5.64000000000000E+00 5.65000000000000E+00 5.66000000000000E+00 5.67000000000000E+00 
5.68000000000000E+00 5.69000000000000E+00 5.70000000000000E+00 5.71000000000000E+00 
5.72000000000000E+00 5.73000000000000E+00 5.74000000000000E+00 5.75000000000000E+00 
5.76000000000000E+00 5.77000000000000E+00 5.78000000000000E+00 5.79000000000000E+00 
5.80000000000000E+00 5.81000000000000E+00 5.82000000000000E+00 5.83000000000000E+00 
5.84000000000000E+00 5.85000000000000E+00 5.86000000000000E+00 5.87000000000000E+00 
5.88000000000000E+00 5.89000000000000E+00 5.90000000000000E+00 5.91000000000000E+00 
5.92000000000000E+00 5.93000000000000E+00 5.94000000000000E+00 5.95000000000000E+00 
5.96000000000000E+00 5.97000000000000E+00 5.98000000000000E+00 5.99000000000000E+00 
6.00000000000000E+00 6.01000000000000E+00 
</PP_R>
    <PP_RAB>
1.00000000000000E-02 1.00000000000000E-02 1.00000000000000E-02 1.00000000000000E-02 
1.00000000000000E-02 1.00000000000000E-02 1.00000000000000E-02 1.00000000000000E-02 
1.00000000000000E-02 1.00000000000000E-02 1.00000000000000E-02 1.00000000000000E-02 
1.00000000000000E-02 1.00000000000000E-02 1.00000000000000E-02 1.00000000000000E-02 
1.00000000000000E-02 1.00000000000000E-02 1.00000000000000E-02 1.00000000000000E-02 
1.00000000000000E-02 1.00000000000000E-02 1.00000000000000E-02 1.00000000000000E-02 
1.00000000000000E-02 1.00000000000000E-02 1.00000000000000E-02 1.00000000000000E-02 
1.00000000000000E-02 1.00000000000000E-02 1.00000000000000E-02 1.00000000000000E-02 
1.00000000000000E-02 1.00000000000000E-02 1.00000000000000E-02 1.00000000000000E-02 
1.00000000000000E-02 1.00000000000000E-02 1.00000000000000E-02 1.00000000000000E-02 
1.00000000000000E-02 1.00000000000000E-02 1.00000000000000E-02 1.00000000000000E-02 
1.00000000000000E-02 1.00000000000000E-02 1.00000000000000E-02 1.00000000000000E-02 
1.00000000000000E-02 1.00000000000000E-02 1.00000000000000E-02 1.00000000000000E-02 
1.00000000000000E-02 1.00000000000000E-02 1.00000000000000E-02 1.00000000000000E-02 
1.00000000000000E-02 1.00000000000000E-02 1.00000000000000E-02 1.00000000000000E-02 
1.00000000000000E-02 1.00000000000000E-02 1.00000000000000E-02 1.00000000000000E-02 
1.00000000000000E-02 1.00000000000000E-02 1.00000000000000E-02 1.00000000000000E-02 
1.00000000000000E-02 1.00000000000000E-02 1.00000000000000E-02 1.00000000000000E-02 
1.00000000000000E-02 1.00000000000000E-02 1.00000000000000E-02 1.00000000000000E-02 
1.00000000000000E-02 1.00000000000000E-02 1.00000000000000E-02 1.00000000000000E-02 
1.00000000000000E-02 1.00000000000000E-02 1.00000000000000E-02 1.00000000000000E-02 
1.00000000000000E-02 1.00000000000000E-02 1.00000000000000E-02 1.00000000000000E-02 
1.00000000000000E-02 1.00000000000000E-02 1.00000000000000E-02 1.00000000000000E-02 
1.00000000000000E-02 1.00000000000000E-02 1.00000000000000E-02 1.00000000000000E-02 
1.00000000000000E-02 1.00000000000000E-02 1.00000000000000E-02 1.00000000000000E-02 
1.00000000000000E-02 1.00000000000000E-02 1.00000000000000E-02 1.00000000000000E-02 
1.00000000000000E-02 1.00000000000000E-02 1.00000000000000E-02 1.00000000000000E-02 
1.00000000000000E-02 1.00000000000000E-02 1.00000000000000E-02 1.00000000000000E-02 
1.00000000000000E-02 1.00000000000000E-02 1.00000000000000E-02 1.00000000000000E-02 
1.00000000000000E-02 1.00000000000000E-02 1.00000000000000E-02 1.00000000000000E-02 
1.00000000000000E-02 1.00000000000000E-02 1.00000000000000E-02 1.00000000000000E-02 
1.00000000000000E-02 1.00000000000000E-02 1.00000000000000E-02 1.00000000000000E-02 
1.00000000000000E-02 1.00000000000000E-02 1.00000000000000E-02 1.00000000000000E-02 
1.00000000000000E-02 1.00000000000000E-02 1.00000000000000E-02 1.00000000000000E-02 
1.00000000000000E-02 1.00000000000000E-02 1.00000000000000E-02 1.00000000000000E-02 
1.00000000000000E-02 1.00000000000000E-02 1.00000000000000E-02 1.00000000000000E-02 
1.00000000000000E-02 1.00000000000000E-02 1.00000000000000E-02 1.00000000000000E-02 
1.00000000000000E-02 1.00000000000000E-02 1.00000000000000E-02 1.00000000000000E-02 
1.00000000000000E-02 1.00000000000000E-02 1.00000000000000E-02 1.00000000000000E-02 
1.00000000000000E-02 1.00000000000000E-02 1.00000000000000E-02 1.00000000000000E-02 
1.00000000000000E-02 1.00000000000000E-02 1.00000000000000E-02 1.00000000000000E-02 
1.00000000000000E-02 1.00000000000000E-02 1.00000000000000E-02 1.00000000000000E-02 
1.00000000000000E-02 1.00000000000000E-02 1.00000000000000E-02 1.00000000000000E-02 
1.00000000000000E-02 1.00000000000000E-02 1.00000000000000E-02 1.00000000000000E-02 
1.00000000000000E-02 1.00000000000000E-02 1.00000000000000E-02 1.00000000000000E-02 
1.00000000000000E-02 1.00000000000000E-02 1.00000000000000E-02 1.00000000000000E-02 
1.00000000000000E-02 1.00000000000000E-02 1.00000000000000E-02 1.00000000000000E-02 
1.00000000000000E-02 1.00000000000000E-02 1.00000000000000E-02 1.00000000000000E-02 
1.00000000000000E-02 1.00000000000000E-02 1.00000000000000E-02 1.00000000000000E-02 
1.00000000000000E-02 1.00000000000000E-02 1.00000000000000E-02 1.00000000000000E-02 
1.00000000000000E-02 1.00000000000000E-02 1.00000000000000E-02 1.00000000000000E-02 
1.00000000000000E-02 1.00000000000000E-02 1.00000000000000E-02 1.00000000000000E-02 
1.00000000000000E-02 1.00000000000000E-02 1.00000000000000E-02 1.00000000000000E-02 
1.00000000000000E-02 1.00000000000000E-02 1.00000000000000E-02 1.00000000000000E-02 
1.00000000000000E-02 1.00000000000000E-02 1.00000000000000E-02 1.00000000000000E-02 
1.00000000000000E-02 1.00000000000000E-02 1.00000000000000E-02 1.00000000000000E-02 
1.00000000000000E-02 1.00000000000000E-02 1.00000000000000E-02 1.00000000000000E-02 
1.00000000000000E-02 1.00000000000000E-02 1.00000000000000E-02 1.00000000000000E-02 
1.00000000000000E-02 1.00000000000000E-02 1.00000000000000E-02 1.00000000000000E-02 
1.00000000000000E-02 1.00000000000000E-02 1.00000000000000E-02 1.00000000000000E-02 
1.00000000000000E-02 1.00000000000000E-02 1.00000000000000E-02 1.00000000000000E-02 
1.00000000000000E-02 1.00000000000000E-02 1.00000000000000E-02 1.00000000000000E-02 
1.00000000000000E-02 1.00000000000000E-02 1.00000000000000E-02 1.00000000000000E-02 
1.00000000000000E-02 1.00000000000000E-02 1.00000000000000E-02 1.00000000000000E-02 
1.00000000000000E-02 1.00000000000000E-02 1.00000000000000E-02 1.00000000000000E-02 
1.00000000000000E-02 1.00000000000000E-02 1.00000000000000E-02 1.00000000000000E-02 
1.00000000000000E-02 1.00000000000000E-02 1.00000000000000E-02 1.00000000000000E-02 
1.00000000000000E-02 1.00000000000000E-02 1.00000000000000E-02 1.00000000000000E-02 
1.00000000000000E-02 1.00000000000000E-02 1.00000000000000E-02 1.00000000000000E-02 
1.00000000000000E-02 1.00000000000000E-02 1.00000000000000E-02 1.00000000000000E-02 
1.00000000000000E-02 1.00000000000000E-02 1.00000000000000E-02 1.00000000000000E-02 
1.00000000000000E-02 1.00000000000000E-02 1.00000000000000E-02 1.00000000000000E-02 
1.00000000000000E-02 1.00000000000000E-02 1.00000000000000E-02 1.00000000000000E-02 
1.00000000000000E-02 1.00000000000000E-02 1.00000000000000E-02 1.00000000000000E-02 
1.00000000000000E-02 1.00000000000000E-02 1.00000000000000E-02 1.00000000000000E-02 
1.00000000000000E-02 1.00000000000000E-02 1.00000000000000E-02 1.00000000000000E-02 
1.00000000000000E-02 1.00000000000000E-02 1.00000000000000E-02 1.00000000000000E-02 
1.00000000000000E-02 1.00000000000000E-02 1.00000000000000E-02 1.00000000000000E-02 
1.00000000000000E-02 1.00000000000000E-02 1.00000000000000E-02 1.00000000000000E-02 
1.00000000000000E-02 1.00000000000000E-02 1.00000000000000E-02 1.00000000000000E-02 
1.00000000000000E-02 1.00000000000000E-02 1.00000000000000E-02 1.00000000000000E-02 
1.00000000000000E-02 1.00000000000000E-02 1.00000000000000E-02 1.00000000000000E-02 
1.00000000000000E-02 1.00000000000000E-02 1.00000000000000E-02 1.00000000000000E-02 
1.00000000000000E-02 1.00000000000000E-02 1.00000000000000E-02 1.00000000000000E-02 
1.00000000000000E-02 1.00000000000000E-02 1.00000000000000E-02 1.00000000000000E-02 
1.00000000000000E-02 1.00000000000000E-02 1.00000000000000E-02 1.00000000000000E-02 
1.00000000000000E-02 1.00000000000000E-02 1.00000000000000E-02 1.00000000000000E-02 
1.00000000000000E-02 1.00000000000000E-02 1.00000000000000E-02 1.00000000000000E-02 
1.00000000000000E-02 1.00000000000000E-02 1.00000000000000E-02 1.00000000000000E-02 
1.00000000000000E-02 1.00000000000000E-02 1.00000000000000E-02 1.00000000000000E-02 
1.00000000000000E-02 1.00000000000000E-02 1.00000000000000E-02 1.00000000000000E-02 
1.00000000000000E-02 1.00000000000000E-02 1.00000000000000E-02 1.00000000000000E-02 
1.00000000000000E-02 1.00000000000000E-02 1.00000000000000E-02 1.00000000000000E-02 
1.00000000000000E-02 1.00000000000000E-02 1.00000000000000E-02 1.00000000000000E-02 
1.00000000000000E-02 1.00000000000000E-02 1.00000000000000E-02 1.00000000000000E-02 
1.00000000000000E-02 1.00000000000000E-02 1.00000000000000E-02 1.00000000000000E-02 
1.00000000000000E-02 1.00000000000000E-02 1.00000000000000E-02 1.00000000000000E-02 
1.00000000000000E-02 1.00000000000000E-02 1.00000000000000E-02 1.00000000000000E-02 
1.00000000000000E-02 1.00000000000000E-02 1.00000000000000E-02 1.00000000000000E-02 
1.00000000000000E-02 1.00000000000000E-02 1.00000000000000E-02 1.00000000000000E-02 
1.00000000000000E-02 1.00000000000000E-02 1.00000000000000E-02 1.00000000000000E-02 
1.00000000000000E-02 1.00000000000000E-02 1.00000000000000E-02 1.00000000000000E-02 
1.00000000000000E-02 1.00000000000000E-02 1.00000000000000E-02 1.00000000000000E-02 
1.00000000000000E-02 1.00000000000000E-02 1.00000000000000E-02 1.00000000000000E-02 
1.00000000000000E-02 1.00000000000000E-02 1.00000000000000E-02 1.00000000000000E-02 
1.00000000000000E-02 1.00000000000000E-02 1.00000000000000E-02 1.00000000000000E-02 
1.00000000000000E-02 1.00000000000000E-02 1.00000000000000E-02 1.00000000000000E-02 
1.00000000000000E-02 1.00000000000000E-02 1.00000000000000E-02 1.00000000000000E-02 
1.00000000000000E-02 1.00000000000000E-02 1.00000000000000E-02 1.00000000000000E-02 
1.00000000000000E-02 1.00000000000000E-02 1.00000000000000E-02 1.00000000000000E-02 
1.00000000000000E-02 1.00000000000000E-02 1.00000000000000E-02 1.00000000000000E-02 
1.00000000000000E-02 1.00000000000000E-02 1.00000000000000E-02 1.00000000000000E-02 
1.00000000000000E-02 1.00000000000000E-02 1.00000000000000E-02 1.00000000000000E-02 
1.00000000000000E-02 1.00000000000000E-02 1.00000000000000E-02 1.00000000000000E-02 
1.00000000000000E-02 1.00000000000000E-02 1.00000000000000E-02 1.00000000000000E-02 
1.00000000000000E-02 1.00000000000000E-02 1.00000000000000E-02 1.00000000000000E-02 
1.00000000000000E-02 1.00000000000000E-02 1.00000000000000E-02 1.00000000000000E-02 
1.00000000000000E-02 1.00000000000000E-02 1.00000000000000E-02 1.00000000000000E-02 
1.00000000000000E-02 1.00000000000000E-02 1.00000000000000E-02 1.00000000000000E-02 
1.00000000000000E-02 1.00000000000000E-02 1.00000000000000E-02 1.00000000000000E-02 
1.00000000000000E-02 1.00000000000000E-02 1.00000000000000E-02 1.00000000000000E-02 
1.00000000000000E-02 1.00000000000000E-02 1.00000000000000E-02 1.00000000000000E-02 
1.00000000000000E-02 1.00000000000000E-02 1.00000000000000E-02 1.00000000000000E-02 
1.00000000000000E-02 1.00000000000000E-02 1.00000000000000E-02 1.00000000000000E-02 
1.00000000000000E-02 1.00000000000000E-02 1.00000000000000E-02 1.00000000000000E-02 
1.00000000000000E-02 1.00000000000000E-02 1.00000000000000E-02 1.00000000000000E-02 
1.00000000000000E-02 1.00000000000000E-02 1.00000000000000E-02 1.00000000000000E-02 
1.00000000000000E-02 1.00000000000000E-02 1.00000000000000E-02 1.00000000000000E-02 
1.00000000000000E-02 1.00000000000000E-02 1.00000000000000E-02 1.00000000000000E-02 
1.00000000000000E-02 1.00000000000000E-02 1.00000000000000E-02 1.00000000000000E-02 
1.00000000000000E-02 1.00000000000000E-02 1.00000000000000E-02 1.00000000000000E-02 
1.00000000000000E-02 1.00000000000000E-02 1.00000000000000E-02 1.00000000000000E-02 
1.00000000000000E-02 1.00000000000000E-02 1.00000000000000E-02 1.00000000000000E-02 
1.00000000000000E-02 1.00000000000000E-02 1.00000000000000E-02 1.00000000000000E-02 
1.00000000000000E-02 1.00000000000000E-02 1.00000000000000E-02 1.00000000000000E-02 
1.00000000000000E-02 1.00000000000000E-02 1.00000000000000E-02 1.00000000000000E-02 
1.00000000000000E-02 1.00000000000000E-02 1.00000000000000E-02 1.00000000000000E-02 
1.00000000000000E-02 1.00000000000000E-02 1.00000000000000E-02 1.00000000000000E-02 
1.00000000000000E-02 1.00000000000000E-02 1.00000000000000E-02 1.00000000000000E-02 
1.00000000000000E-02 1.00000000000000E-02 1.00000000000000E-02 1.00000000000000E-02 
1.00000000000000E-02 1.00000000000000E-02 1.00000000000000E-02 1.00000000000000E-02 
1.00000000000000E-02 1.00000000000000E-02 1.00000000000000E-02 1.00000000000000E-02 
1.00000000000000E-02 1.00000000000000E-02 1.00000000000000E-02 1.00000000000000E-02 
1.00000000000000E-02 1.00000000000000E-02 1.00000000000000E-02 1.00000000000000E-02 
1.00000000000000E-02 1.00000000000000E-02 1.00000000000000E-02 1.00000000000000E-02 
1.00000000000000E-02 1.00000000000000E-02 1.00000000000000E-02 1.00000000000000E-02 
1.00000000000000E-02 1.00000000000000E-02 1.00000000000000E-02 1.00000000000000E-02 
1.00000000000000E-02 1.00000000000000E-02 1.00000000000000E-02 1.00000000000000E-02 
1.00000000000000E-02 1.00000000000000E-02 1.00000000000000E-02 1.00000000000000E-02 
1.00000000000000E-02 1.00000000000000E-02 1.00000000000000E-02 1.00000000000000E-02 
1.00000000000000E-02 1.00000000000000E-02 
</PP_RAB>
  </PP_MESH>
  <PP_NLCC>
1.35504881660000E+01 1.35432863040000E+01 1.35217022140000E+01 1.34858003000000E+01 
1.34356875620000E+01 1.33715131040000E+01 1.32934674340000E+01 1.32017815830000E+01 
1.30967260330000E+01 1.29786094660000E+01 1.28477773440000E+01 1.27046103220000E+01 
1.25495225140000E+01 1.23829596130000E+01 1.22053968740000E+01 1.20173369890000E+01 
1.18193078470000E+01 1.16118602000000E+01 1.13955652560000E+01 1.11710121980000E+01 
1.09388056560000E+01 1.06995631400000E+01 1.04539124510000E+01 1.02024890810000E+01 
9.94593362560000E+00 9.68488920580000E+00 9.41999893290000E+00 9.15190341500000E+00 
8.88123832470000E+00 8.60863203820000E+00 8.33470335830000E+00 8.06005933060000E+00 
7.78529316400000E+00 7.51098226550000E+00 7.23768639510000E+00 6.96594595050000E+00 
6.69628038720000E+00 6.42918677870000E+00 6.16513852270000E+00 5.90458419490000E+00 
5.64794655470000E+00 5.39562170240000E+00 5.14797838970000E+00 4.90535748170000E+00 
4.66807157080000E+00 4.43640473700000E+00 4.21061245510000E+00 3.99092164090000E+00 
3.77753083530000E+00 3.57061051700000E+00 3.37030354100000E+00 3.17672569350000E+00 
2.98996635740000E+00 2.81008928000000E+00 2.63713343490000E+00 2.47111396970000E+00 
2.31202323060000E+00 2.15983185510000E+00 2.01448992420000E+00 1.87592816370000E+00 
1.74405918840000E+00 1.61877877630000E+00 1.49996716820000E+00 1.38749038110000E+00 
1.28120152840000E+00 1.18094213920000E+00 1.08654346810000E+00 9.97827789110000E-01 
9.14609666620000E-01 8.36697197120000E-01 7.63893215640000E-01 6.95996461950000E-01 
6.32802701420000E-01 5.74105796480000E-01 5.19698724810000E-01 4.69374541270000E-01 
4.22927280720000E-01 3.80152799810000E-01 3.40849556190000E-01 3.04819323880000E-01 
2.71867844480000E-01 2.41805414020000E-01 2.14447405730000E-01 1.89614729680000E-01 
1.67134230340000E-01 1.46839023550000E-01 1.28568774940000E-01 1.12169921780000E-01 
9.74958407550000E-02 8.44069643080000E-02 7.27708484280000E-02 6.24621948410000E-02 
5.33628307650000E-02 4.53616494740000E-02 3.83545149450000E-02 3.22441339390000E-02 
2.69398988400000E-02 2.23577045820000E-02 1.84197429170000E-02 1.50542772460000E-02 
1.21954010960000E-02 9.78278326750000E-03 7.76140250560000E-03 6.08127443330000E-03 
4.69717332610000E-03 3.56835113340000E-03 2.65825598960000E-03 1.93425227740000E-03 